+ 0.1 1 2 cbr 1000 ------- 2 1.0 5.0 0 0
- 0.1 1 2 cbr 1000 ------- 2 1.0 5.0 0 0
+ 0.1 1 2 cbr 24 ------- 2 1.0 5.0 1 1
- 0.1008 1 2 cbr 24 ------- 2 1.0 5.0 1 1
+ 0.108192 1 2 cbr 1000 ------- 2 1.0 5.0 2 2
- 0.108192 1 2 cbr 1000 ------- 2 1.0 5.0 2 2
+ 0.108192 1 2 cbr 24 ------- 2 1.0 5.0 3 3
- 0.108992 1 2 cbr 24 ------- 2 1.0 5.0 3 3
r 0.1108 1 2 cbr 1000 ------- 2 1.0 5.0 0 0
+ 0.1108 2 3 cbr 1000 ------- 2 1.0 5.0 0 0
- 0.1108 2 3 cbr 1000 ------- 2 1.0 5.0 0 0
r 0.110819 1 2 cbr 24 ------- 2 1.0 5.0 1 1
+ 0.110819 2 3 cbr 24 ------- 2 1.0 5.0 1 1
- 0.1116 2 3 cbr 24 ------- 2 1.0 5.0 1 1
+ 0.116384 1 2 cbr 1000 ------- 2 1.0 5.0 4 4
- 0.116384 1 2 cbr 1000 ------- 2 1.0 5.0 4 4
+ 0.116384 1 2 cbr 24 ------- 2 1.0 5.0 5 5
- 0.117184 1 2 cbr 24 ------- 2 1.0 5.0 5 5
r 0.118992 1 2 cbr 1000 ------- 2 1.0 5.0 2 2
+ 0.118992 2 3 cbr 1000 ------- 2 1.0 5.0 2 2
- 0.118992 2 3 cbr 1000 ------- 2 1.0 5.0 2 2
r 0.119011 1 2 cbr 24 ------- 2 1.0 5.0 3 3
+ 0.119011 2 3 cbr 24 ------- 2 1.0 5.0 3 3
- 0.119792 2 3 cbr 24 ------- 2 1.0 5.0 3 3
+ 0.124576 1 2 cbr 1000 ------- 2 1.0 5.0 6 6
- 0.124576 1 2 cbr 1000 ------- 2 1.0 5.0 6 6
+ 0.124576 1 2 cbr 24 ------- 2 1.0 5.0 7 7
- 0.125376 1 2 cbr 24 ------- 2 1.0 5.0 7 7
r 0.127184 1 2 cbr 1000 ------- 2 1.0 5.0 4 4
+ 0.127184 2 3 cbr 1000 ------- 2 1.0 5.0 4 4
- 0.127184 2 3 cbr 1000 ------- 2 1.0 5.0 4 4
r 0.127203 1 2 cbr 24 ------- 2 1.0 5.0 5 5
+ 0.127203 2 3 cbr 24 ------- 2 1.0 5.0 5 5
- 0.127984 2 3 cbr 24 ------- 2 1.0 5.0 5 5
+ 0.132768 1 2 cbr 1000 ------- 2 1.0 5.0 8 8
- 0.132768 1 2 cbr 1000 ------- 2 1.0 5.0 8 8
+ 0.132768 1 2 cbr 24 ------- 2 1.0 5.0 9 9
- 0.133568 1 2 cbr 24 ------- 2 1.0 5.0 9 9
r 0.135376 1 2 cbr 1000 ------- 2 1.0 5.0 6 6
+ 0.135376 2 3 cbr 1000 ------- 2 1.0 5.0 6 6
- 0.135376 2 3 cbr 1000 ------- 2 1.0 5.0 6 6
r 0.135395 1 2 cbr 24 ------- 2 1.0 5.0 7 7
+ 0.135395 2 3 cbr 24 ------- 2 1.0 5.0 7 7
- 0.136176 2 3 cbr 24 ------- 2 1.0 5.0 7 7
+ 0.14096 1 2 cbr 1000 ------- 2 1.0 5.0 10 10
- 0.14096 1 2 cbr 1000 ------- 2 1.0 5.0 10 10
+ 0.14096 1 2 cbr 24 ------- 2 1.0 5.0 11 11
- 0.14176 1 2 cbr 24 ------- 2 1.0 5.0 11 11
r 0.143568 1 2 cbr 1000 ------- 2 1.0 5.0 8 8
+ 0.143568 2 3 cbr 1000 ------- 2 1.0 5.0 8 8
- 0.143568 2 3 cbr 1000 ------- 2 1.0 5.0 8 8
r 0.143587 1 2 cbr 24 ------- 2 1.0 5.0 9 9
+ 0.143587 2 3 cbr 24 ------- 2 1.0 5.0 9 9
- 0.144368 2 3 cbr 24 ------- 2 1.0 5.0 9 9
+ 0.149152 1 2 cbr 1000 ------- 2 1.0 5.0 12 12
- 0.149152 1 2 cbr 1000 ------- 2 1.0 5.0 12 12
+ 0.149152 1 2 cbr 24 ------- 2 1.0 5.0 13 13
- 0.149952 1 2 cbr 24 ------- 2 1.0 5.0 13 13
r 0.15176 1 2 cbr 1000 ------- 2 1.0 5.0 10 10
+ 0.15176 2 3 cbr 1000 ------- 2 1.0 5.0 10 10
- 0.15176 2 3 cbr 1000 ------- 2 1.0 5.0 10 10
r 0.151779 1 2 cbr 24 ------- 2 1.0 5.0 11 11
+ 0.151779 2 3 cbr 24 ------- 2 1.0 5.0 11 11
- 0.15256 2 3 cbr 24 ------- 2 1.0 5.0 11 11
+ 0.157344 1 2 cbr 1000 ------- 2 1.0 5.0 14 14
- 0.157344 1 2 cbr 1000 ------- 2 1.0 5.0 14 14
+ 0.157344 1 2 cbr 24 ------- 2 1.0 5.0 15 15
- 0.158144 1 2 cbr 24 ------- 2 1.0 5.0 15 15
r 0.159952 1 2 cbr 1000 ------- 2 1.0 5.0 12 12
+ 0.159952 2 3 cbr 1000 ------- 2 1.0 5.0 12 12
- 0.159952 2 3 cbr 1000 ------- 2 1.0 5.0 12 12
r 0.159971 1 2 cbr 24 ------- 2 1.0 5.0 13 13
+ 0.159971 2 3 cbr 24 ------- 2 1.0 5.0 13 13
- 0.160752 2 3 cbr 24 ------- 2 1.0 5.0 13 13
+ 0.165536 1 2 cbr 1000 ------- 2 1.0 5.0 16 16
- 0.165536 1 2 cbr 1000 ------- 2 1.0 5.0 16 16
+ 0.165536 1 2 cbr 24 ------- 2 1.0 5.0 17 17
- 0.166336 1 2 cbr 24 ------- 2 1.0 5.0 17 17
r 0.168144 1 2 cbr 1000 ------- 2 1.0 5.0 14 14
+ 0.168144 2 3 cbr 1000 ------- 2 1.0 5.0 14 14
- 0.168144 2 3 cbr 1000 ------- 2 1.0 5.0 14 14
r 0.168163 1 2 cbr 24 ------- 2 1.0 5.0 15 15
+ 0.168163 2 3 cbr 24 ------- 2 1.0 5.0 15 15
- 0.168944 2 3 cbr 24 ------- 2 1.0 5.0 15 15
+ 0.173728 1 2 cbr 1000 ------- 2 1.0 5.0 18 18
- 0.173728 1 2 cbr 1000 ------- 2 1.0 5.0 18 18
+ 0.173728 1 2 cbr 24 ------- 2 1.0 5.0 19 19
- 0.174528 1 2 cbr 24 ------- 2 1.0 5.0 19 19
r 0.176336 1 2 cbr 1000 ------- 2 1.0 5.0 16 16
+ 0.176336 2 3 cbr 1000 ------- 2 1.0 5.0 16 16
- 0.176336 2 3 cbr 1000 ------- 2 1.0 5.0 16 16
r 0.176355 1 2 cbr 24 ------- 2 1.0 5.0 17 17
+ 0.176355 2 3 cbr 24 ------- 2 1.0 5.0 17 17
- 0.177136 2 3 cbr 24 ------- 2 1.0 5.0 17 17
+ 0.18192 1 2 cbr 1000 ------- 2 1.0 5.0 20 20
- 0.18192 1 2 cbr 1000 ------- 2 1.0 5.0 20 20
+ 0.18192 1 2 cbr 24 ------- 2 1.0 5.0 21 21
- 0.18272 1 2 cbr 24 ------- 2 1.0 5.0 21 21
r 0.184528 1 2 cbr 1000 ------- 2 1.0 5.0 18 18
+ 0.184528 2 3 cbr 1000 ------- 2 1.0 5.0 18 18
- 0.184528 2 3 cbr 1000 ------- 2 1.0 5.0 18 18
r 0.184547 1 2 cbr 24 ------- 2 1.0 5.0 19 19
+ 0.184547 2 3 cbr 24 ------- 2 1.0 5.0 19 19
- 0.185328 2 3 cbr 24 ------- 2 1.0 5.0 19 19
+ 0.190112 1 2 cbr 1000 ------- 2 1.0 5.0 22 22
- 0.190112 1 2 cbr 1000 ------- 2 1.0 5.0 22 22
+ 0.190112 1 2 cbr 24 ------- 2 1.0 5.0 23 23
- 0.190912 1 2 cbr 24 ------- 2 1.0 5.0 23 23
r 0.19272 1 2 cbr 1000 ------- 2 1.0 5.0 20 20
+ 0.19272 2 3 cbr 1000 ------- 2 1.0 5.0 20 20
- 0.19272 2 3 cbr 1000 ------- 2 1.0 5.0 20 20
r 0.192739 1 2 cbr 24 ------- 2 1.0 5.0 21 21
+ 0.192739 2 3 cbr 24 ------- 2 1.0 5.0 21 21
- 0.19352 2 3 cbr 24 ------- 2 1.0 5.0 21 21
+ 0.198304 1 2 cbr 1000 ------- 2 1.0 5.0 24 24
- 0.198304 1 2 cbr 1000 ------- 2 1.0 5.0 24 24
+ 0.198304 1 2 cbr 24 ------- 2 1.0 5.0 25 25
- 0.199104 1 2 cbr 24 ------- 2 1.0 5.0 25 25
r 0.200912 1 2 cbr 1000 ------- 2 1.0 5.0 22 22
+ 0.200912 2 3 cbr 1000 ------- 2 1.0 5.0 22 22
- 0.200912 2 3 cbr 1000 ------- 2 1.0 5.0 22 22
r 0.200931 1 2 cbr 24 ------- 2 1.0 5.0 23 23
+ 0.200931 2 3 cbr 24 ------- 2 1.0 5.0 23 23
- 0.201712 2 3 cbr 24 ------- 2 1.0 5.0 23 23
+ 0.206496 1 2 cbr 1000 ------- 2 1.0 5.0 26 26
- 0.206496 1 2 cbr 1000 ------- 2 1.0 5.0 26 26
+ 0.206496 1 2 cbr 24 ------- 2 1.0 5.0 27 27
- 0.207296 1 2 cbr 24 ------- 2 1.0 5.0 27 27
r 0.209104 1 2 cbr 1000 ------- 2 1.0 5.0 24 24
+ 0.209104 2 3 cbr 1000 ------- 2 1.0 5.0 24 24
- 0.209104 2 3 cbr 1000 ------- 2 1.0 5.0 24 24
r 0.209123 1 2 cbr 24 ------- 2 1.0 5.0 25 25
+ 0.209123 2 3 cbr 24 ------- 2 1.0 5.0 25 25
- 0.209904 2 3 cbr 24 ------- 2 1.0 5.0 25 25
r 0.2116 2 3 cbr 1000 ------- 2 1.0 5.0 0 0
+ 0.2116 3 5 cbr 1000 ------- 2 1.0 5.0 0 0
- 0.2116 3 5 cbr 1000 ------- 2 1.0 5.0 0 0
r 0.211619 2 3 cbr 24 ------- 2 1.0 5.0 1 1
+ 0.211619 3 5 cbr 24 ------- 2 1.0 5.0 1 1
- 0.2124 3 5 cbr 24 ------- 2 1.0 5.0 1 1
+ 0.214688 1 2 cbr 1000 ------- 2 1.0 5.0 28 28
- 0.214688 1 2 cbr 1000 ------- 2 1.0 5.0 28 28
+ 0.214688 1 2 cbr 24 ------- 2 1.0 5.0 29 29
- 0.215488 1 2 cbr 24 ------- 2 1.0 5.0 29 29
r 0.217296 1 2 cbr 1000 ------- 2 1.0 5.0 26 26
+ 0.217296 2 3 cbr 1000 ------- 2 1.0 5.0 26 26
- 0.217296 2 3 cbr 1000 ------- 2 1.0 5.0 26 26
r 0.217315 1 2 cbr 24 ------- 2 1.0 5.0 27 27
+ 0.217315 2 3 cbr 24 ------- 2 1.0 5.0 27 27
- 0.218096 2 3 cbr 24 ------- 2 1.0 5.0 27 27
r 0.219792 2 3 cbr 1000 ------- 2 1.0 5.0 2 2
+ 0.219792 3 5 cbr 1000 ------- 2 1.0 5.0 2 2
- 0.219792 3 5 cbr 1000 ------- 2 1.0 5.0 2 2
r 0.219811 2 3 cbr 24 ------- 2 1.0 5.0 3 3
+ 0.219811 3 5 cbr 24 ------- 2 1.0 5.0 3 3
- 0.220592 3 5 cbr 24 ------- 2 1.0 5.0 3 3
+ 0.22288 1 2 cbr 1000 ------- 2 1.0 5.0 30 30
- 0.22288 1 2 cbr 1000 ------- 2 1.0 5.0 30 30
+ 0.22288 1 2 cbr 24 ------- 2 1.0 5.0 31 31
- 0.22368 1 2 cbr 24 ------- 2 1.0 5.0 31 31
r 0.225488 1 2 cbr 1000 ------- 2 1.0 5.0 28 28
+ 0.225488 2 3 cbr 1000 ------- 2 1.0 5.0 28 28
- 0.225488 2 3 cbr 1000 ------- 2 1.0 5.0 28 28
r 0.225507 1 2 cbr 24 ------- 2 1.0 5.0 29 29
+ 0.225507 2 3 cbr 24 ------- 2 1.0 5.0 29 29
- 0.226288 2 3 cbr 24 ------- 2 1.0 5.0 29 29
r 0.227984 2 3 cbr 1000 ------- 2 1.0 5.0 4 4
+ 0.227984 3 5 cbr 1000 ------- 2 1.0 5.0 4 4
- 0.227984 3 5 cbr 1000 ------- 2 1.0 5.0 4 4
r 0.228003 2 3 cbr 24 ------- 2 1.0 5.0 5 5
+ 0.228003 3 5 cbr 24 ------- 2 1.0 5.0 5 5
- 0.228784 3 5 cbr 24 ------- 2 1.0 5.0 5 5
+ 0.231072 1 2 cbr 1000 ------- 2 1.0 5.0 32 32
- 0.231072 1 2 cbr 1000 ------- 2 1.0 5.0 32 32
+ 0.231072 1 2 cbr 24 ------- 2 1.0 5.0 33 33
- 0.231872 1 2 cbr 24 ------- 2 1.0 5.0 33 33
r 0.23368 1 2 cbr 1000 ------- 2 1.0 5.0 30 30
+ 0.23368 2 3 cbr 1000 ------- 2 1.0 5.0 30 30
- 0.23368 2 3 cbr 1000 ------- 2 1.0 5.0 30 30
r 0.233699 1 2 cbr 24 ------- 2 1.0 5.0 31 31
+ 0.233699 2 3 cbr 24 ------- 2 1.0 5.0 31 31
- 0.23448 2 3 cbr 24 ------- 2 1.0 5.0 31 31
r 0.236176 2 3 cbr 1000 ------- 2 1.0 5.0 6 6
+ 0.236176 3 5 cbr 1000 ------- 2 1.0 5.0 6 6
- 0.236176 3 5 cbr 1000 ------- 2 1.0 5.0 6 6
r 0.236195 2 3 cbr 24 ------- 2 1.0 5.0 7 7
+ 0.236195 3 5 cbr 24 ------- 2 1.0 5.0 7 7
- 0.236976 3 5 cbr 24 ------- 2 1.0 5.0 7 7
+ 0.239264 1 2 cbr 1000 ------- 2 1.0 5.0 34 34
- 0.239264 1 2 cbr 1000 ------- 2 1.0 5.0 34 34
+ 0.239264 1 2 cbr 24 ------- 2 1.0 5.0 35 35
- 0.240064 1 2 cbr 24 ------- 2 1.0 5.0 35 35
r 0.241872 1 2 cbr 1000 ------- 2 1.0 5.0 32 32
+ 0.241872 2 3 cbr 1000 ------- 2 1.0 5.0 32 32
- 0.241872 2 3 cbr 1000 ------- 2 1.0 5.0 32 32
r 0.241891 1 2 cbr 24 ------- 2 1.0 5.0 33 33
+ 0.241891 2 3 cbr 24 ------- 2 1.0 5.0 33 33
- 0.242672 2 3 cbr 24 ------- 2 1.0 5.0 33 33
r 0.244368 2 3 cbr 1000 ------- 2 1.0 5.0 8 8
+ 0.244368 3 5 cbr 1000 ------- 2 1.0 5.0 8 8
- 0.244368 3 5 cbr 1000 ------- 2 1.0 5.0 8 8
r 0.244387 2 3 cbr 24 ------- 2 1.0 5.0 9 9
+ 0.244387 3 5 cbr 24 ------- 2 1.0 5.0 9 9
- 0.245168 3 5 cbr 24 ------- 2 1.0 5.0 9 9
+ 0.247456 1 2 cbr 1000 ------- 2 1.0 5.0 36 36
- 0.247456 1 2 cbr 1000 ------- 2 1.0 5.0 36 36
+ 0.247456 1 2 cbr 24 ------- 2 1.0 5.0 37 37
- 0.248256 1 2 cbr 24 ------- 2 1.0 5.0 37 37
r 0.250064 1 2 cbr 1000 ------- 2 1.0 5.0 34 34
+ 0.250064 2 3 cbr 1000 ------- 2 1.0 5.0 34 34
- 0.250064 2 3 cbr 1000 ------- 2 1.0 5.0 34 34
r 0.250083 1 2 cbr 24 ------- 2 1.0 5.0 35 35
+ 0.250083 2 3 cbr 24 ------- 2 1.0 5.0 35 35
- 0.250864 2 3 cbr 24 ------- 2 1.0 5.0 35 35
r 0.2524 3 5 cbr 1000 ------- 2 1.0 5.0 0 0
r 0.252419 3 5 cbr 24 ------- 2 1.0 5.0 1 1
r 0.25256 2 3 cbr 1000 ------- 2 1.0 5.0 10 10
+ 0.25256 3 5 cbr 1000 ------- 2 1.0 5.0 10 10
- 0.25256 3 5 cbr 1000 ------- 2 1.0 5.0 10 10
r 0.252579 2 3 cbr 24 ------- 2 1.0 5.0 11 11
+ 0.252579 3 5 cbr 24 ------- 2 1.0 5.0 11 11
- 0.25336 3 5 cbr 24 ------- 2 1.0 5.0 11 11
+ 0.255648 1 2 cbr 1000 ------- 2 1.0 5.0 38 38
- 0.255648 1 2 cbr 1000 ------- 2 1.0 5.0 38 38
+ 0.255648 1 2 cbr 24 ------- 2 1.0 5.0 39 39
- 0.256448 1 2 cbr 24 ------- 2 1.0 5.0 39 39
r 0.258256 1 2 cbr 1000 ------- 2 1.0 5.0 36 36
+ 0.258256 2 3 cbr 1000 ------- 2 1.0 5.0 36 36
- 0.258256 2 3 cbr 1000 ------- 2 1.0 5.0 36 36
r 0.258275 1 2 cbr 24 ------- 2 1.0 5.0 37 37
+ 0.258275 2 3 cbr 24 ------- 2 1.0 5.0 37 37
- 0.259056 2 3 cbr 24 ------- 2 1.0 5.0 37 37
r 0.260592 3 5 cbr 1000 ------- 2 1.0 5.0 2 2
r 0.260611 3 5 cbr 24 ------- 2 1.0 5.0 3 3
r 0.260752 2 3 cbr 1000 ------- 2 1.0 5.0 12 12
+ 0.260752 3 5 cbr 1000 ------- 2 1.0 5.0 12 12
- 0.260752 3 5 cbr 1000 ------- 2 1.0 5.0 12 12
r 0.260771 2 3 cbr 24 ------- 2 1.0 5.0 13 13
+ 0.260771 3 5 cbr 24 ------- 2 1.0 5.0 13 13
- 0.261552 3 5 cbr 24 ------- 2 1.0 5.0 13 13
+ 0.26384 1 2 cbr 1000 ------- 2 1.0 5.0 40 40
- 0.26384 1 2 cbr 1000 ------- 2 1.0 5.0 40 40
+ 0.26384 1 2 cbr 24 ------- 2 1.0 5.0 41 41
- 0.26464 1 2 cbr 24 ------- 2 1.0 5.0 41 41
r 0.266448 1 2 cbr 1000 ------- 2 1.0 5.0 38 38
+ 0.266448 2 3 cbr 1000 ------- 2 1.0 5.0 38 38
- 0.266448 2 3 cbr 1000 ------- 2 1.0 5.0 38 38
r 0.266467 1 2 cbr 24 ------- 2 1.0 5.0 39 39
+ 0.266467 2 3 cbr 24 ------- 2 1.0 5.0 39 39
- 0.267248 2 3 cbr 24 ------- 2 1.0 5.0 39 39
r 0.268784 3 5 cbr 1000 ------- 2 1.0 5.0 4 4
r 0.268803 3 5 cbr 24 ------- 2 1.0 5.0 5 5
r 0.268944 2 3 cbr 1000 ------- 2 1.0 5.0 14 14
+ 0.268944 3 5 cbr 1000 ------- 2 1.0 5.0 14 14
- 0.268944 3 5 cbr 1000 ------- 2 1.0 5.0 14 14
r 0.268963 2 3 cbr 24 ------- 2 1.0 5.0 15 15
+ 0.268963 3 5 cbr 24 ------- 2 1.0 5.0 15 15
- 0.269744 3 5 cbr 24 ------- 2 1.0 5.0 15 15
+ 0.272032 1 2 cbr 1000 ------- 2 1.0 5.0 42 42
- 0.272032 1 2 cbr 1000 ------- 2 1.0 5.0 42 42
+ 0.272032 1 2 cbr 24 ------- 2 1.0 5.0 43 43
- 0.272832 1 2 cbr 24 ------- 2 1.0 5.0 43 43
r 0.27464 1 2 cbr 1000 ------- 2 1.0 5.0 40 40
+ 0.27464 2 3 cbr 1000 ------- 2 1.0 5.0 40 40
- 0.27464 2 3 cbr 1000 ------- 2 1.0 5.0 40 40
r 0.274659 1 2 cbr 24 ------- 2 1.0 5.0 41 41
+ 0.274659 2 3 cbr 24 ------- 2 1.0 5.0 41 41
- 0.27544 2 3 cbr 24 ------- 2 1.0 5.0 41 41
r 0.276976 3 5 cbr 1000 ------- 2 1.0 5.0 6 6
r 0.276995 3 5 cbr 24 ------- 2 1.0 5.0 7 7
r 0.277136 2 3 cbr 1000 ------- 2 1.0 5.0 16 16
+ 0.277136 3 5 cbr 1000 ------- 2 1.0 5.0 16 16
- 0.277136 3 5 cbr 1000 ------- 2 1.0 5.0 16 16
r 0.277155 2 3 cbr 24 ------- 2 1.0 5.0 17 17
+ 0.277155 3 5 cbr 24 ------- 2 1.0 5.0 17 17
- 0.277936 3 5 cbr 24 ------- 2 1.0 5.0 17 17
+ 0.280224 1 2 cbr 1000 ------- 2 1.0 5.0 44 44
- 0.280224 1 2 cbr 1000 ------- 2 1.0 5.0 44 44
+ 0.280224 1 2 cbr 24 ------- 2 1.0 5.0 45 45
- 0.281024 1 2 cbr 24 ------- 2 1.0 5.0 45 45
r 0.282832 1 2 cbr 1000 ------- 2 1.0 5.0 42 42
+ 0.282832 2 3 cbr 1000 ------- 2 1.0 5.0 42 42
- 0.282832 2 3 cbr 1000 ------- 2 1.0 5.0 42 42
r 0.282851 1 2 cbr 24 ------- 2 1.0 5.0 43 43
+ 0.282851 2 3 cbr 24 ------- 2 1.0 5.0 43 43
- 0.283632 2 3 cbr 24 ------- 2 1.0 5.0 43 43
r 0.285168 3 5 cbr 1000 ------- 2 1.0 5.0 8 8
r 0.285187 3 5 cbr 24 ------- 2 1.0 5.0 9 9
r 0.285328 2 3 cbr 1000 ------- 2 1.0 5.0 18 18
+ 0.285328 3 5 cbr 1000 ------- 2 1.0 5.0 18 18
- 0.285328 3 5 cbr 1000 ------- 2 1.0 5.0 18 18
r 0.285347 2 3 cbr 24 ------- 2 1.0 5.0 19 19
+ 0.285347 3 5 cbr 24 ------- 2 1.0 5.0 19 19
- 0.286128 3 5 cbr 24 ------- 2 1.0 5.0 19 19
+ 0.288416 1 2 cbr 1000 ------- 2 1.0 5.0 46 46
- 0.288416 1 2 cbr 1000 ------- 2 1.0 5.0 46 46
+ 0.288416 1 2 cbr 24 ------- 2 1.0 5.0 47 47
- 0.289216 1 2 cbr 24 ------- 2 1.0 5.0 47 47
r 0.291024 1 2 cbr 1000 ------- 2 1.0 5.0 44 44
+ 0.291024 2 3 cbr 1000 ------- 2 1.0 5.0 44 44
- 0.291024 2 3 cbr 1000 ------- 2 1.0 5.0 44 44
r 0.291043 1 2 cbr 24 ------- 2 1.0 5.0 45 45
+ 0.291043 2 3 cbr 24 ------- 2 1.0 5.0 45 45
- 0.291824 2 3 cbr 24 ------- 2 1.0 5.0 45 45
r 0.29336 3 5 cbr 1000 ------- 2 1.0 5.0 10 10
r 0.293379 3 5 cbr 24 ------- 2 1.0 5.0 11 11
r 0.29352 2 3 cbr 1000 ------- 2 1.0 5.0 20 20
+ 0.29352 3 5 cbr 1000 ------- 2 1.0 5.0 20 20
- 0.29352 3 5 cbr 1000 ------- 2 1.0 5.0 20 20
r 0.293539 2 3 cbr 24 ------- 2 1.0 5.0 21 21
+ 0.293539 3 5 cbr 24 ------- 2 1.0 5.0 21 21
- 0.29432 3 5 cbr 24 ------- 2 1.0 5.0 21 21
+ 0.296608 1 2 cbr 1000 ------- 2 1.0 5.0 48 48
- 0.296608 1 2 cbr 1000 ------- 2 1.0 5.0 48 48
+ 0.296608 1 2 cbr 24 ------- 2 1.0 5.0 49 49
- 0.297408 1 2 cbr 24 ------- 2 1.0 5.0 49 49
r 0.299216 1 2 cbr 1000 ------- 2 1.0 5.0 46 46
+ 0.299216 2 3 cbr 1000 ------- 2 1.0 5.0 46 46
- 0.299216 2 3 cbr 1000 ------- 2 1.0 5.0 46 46
r 0.299235 1 2 cbr 24 ------- 2 1.0 5.0 47 47
+ 0.299235 2 3 cbr 24 ------- 2 1.0 5.0 47 47
- 0.300016 2 3 cbr 24 ------- 2 1.0 5.0 47 47
r 0.301552 3 5 cbr 1000 ------- 2 1.0 5.0 12 12
r 0.301571 3 5 cbr 24 ------- 2 1.0 5.0 13 13
r 0.301712 2 3 cbr 1000 ------- 2 1.0 5.0 22 22
+ 0.301712 3 5 cbr 1000 ------- 2 1.0 5.0 22 22
- 0.301712 3 5 cbr 1000 ------- 2 1.0 5.0 22 22
r 0.301731 2 3 cbr 24 ------- 2 1.0 5.0 23 23
+ 0.301731 3 5 cbr 24 ------- 2 1.0 5.0 23 23
- 0.302512 3 5 cbr 24 ------- 2 1.0 5.0 23 23
+ 0.3048 1 2 cbr 1000 ------- 2 1.0 5.0 50 50
- 0.3048 1 2 cbr 1000 ------- 2 1.0 5.0 50 50
+ 0.3048 1 2 cbr 24 ------- 2 1.0 5.0 51 51
- 0.3056 1 2 cbr 24 ------- 2 1.0 5.0 51 51
r 0.307408 1 2 cbr 1000 ------- 2 1.0 5.0 48 48
+ 0.307408 2 3 cbr 1000 ------- 2 1.0 5.0 48 48
- 0.307408 2 3 cbr 1000 ------- 2 1.0 5.0 48 48
r 0.307427 1 2 cbr 24 ------- 2 1.0 5.0 49 49
+ 0.307427 2 3 cbr 24 ------- 2 1.0 5.0 49 49
- 0.308208 2 3 cbr 24 ------- 2 1.0 5.0 49 49
r 0.309744 3 5 cbr 1000 ------- 2 1.0 5.0 14 14
r 0.309763 3 5 cbr 24 ------- 2 1.0 5.0 15 15
r 0.309904 2 3 cbr 1000 ------- 2 1.0 5.0 24 24
+ 0.309904 3 5 cbr 1000 ------- 2 1.0 5.0 24 24
- 0.309904 3 5 cbr 1000 ------- 2 1.0 5.0 24 24
r 0.309923 2 3 cbr 24 ------- 2 1.0 5.0 25 25
+ 0.309923 3 5 cbr 24 ------- 2 1.0 5.0 25 25
- 0.310704 3 5 cbr 24 ------- 2 1.0 5.0 25 25
+ 0.312992 1 2 cbr 1000 ------- 2 1.0 5.0 52 52
- 0.312992 1 2 cbr 1000 ------- 2 1.0 5.0 52 52
+ 0.312992 1 2 cbr 24 ------- 2 1.0 5.0 53 53
- 0.313792 1 2 cbr 24 ------- 2 1.0 5.0 53 53
r 0.3156 1 2 cbr 1000 ------- 2 1.0 5.0 50 50
+ 0.3156 2 3 cbr 1000 ------- 2 1.0 5.0 50 50
- 0.3156 2 3 cbr 1000 ------- 2 1.0 5.0 50 50
r 0.315619 1 2 cbr 24 ------- 2 1.0 5.0 51 51
+ 0.315619 2 3 cbr 24 ------- 2 1.0 5.0 51 51
- 0.3164 2 3 cbr 24 ------- 2 1.0 5.0 51 51
r 0.317936 3 5 cbr 1000 ------- 2 1.0 5.0 16 16
r 0.317955 3 5 cbr 24 ------- 2 1.0 5.0 17 17
r 0.318096 2 3 cbr 1000 ------- 2 1.0 5.0 26 26
+ 0.318096 3 5 cbr 1000 ------- 2 1.0 5.0 26 26
- 0.318096 3 5 cbr 1000 ------- 2 1.0 5.0 26 26
r 0.318115 2 3 cbr 24 ------- 2 1.0 5.0 27 27
+ 0.318115 3 5 cbr 24 ------- 2 1.0 5.0 27 27
- 0.318896 3 5 cbr 24 ------- 2 1.0 5.0 27 27
+ 0.321184 1 2 cbr 1000 ------- 2 1.0 5.0 54 54
- 0.321184 1 2 cbr 1000 ------- 2 1.0 5.0 54 54
+ 0.321184 1 2 cbr 24 ------- 2 1.0 5.0 55 55
- 0.321984 1 2 cbr 24 ------- 2 1.0 5.0 55 55
r 0.323792 1 2 cbr 1000 ------- 2 1.0 5.0 52 52
+ 0.323792 2 3 cbr 1000 ------- 2 1.0 5.0 52 52
- 0.323792 2 3 cbr 1000 ------- 2 1.0 5.0 52 52
r 0.323811 1 2 cbr 24 ------- 2 1.0 5.0 53 53
+ 0.323811 2 3 cbr 24 ------- 2 1.0 5.0 53 53
- 0.324592 2 3 cbr 24 ------- 2 1.0 5.0 53 53
r 0.326128 3 5 cbr 1000 ------- 2 1.0 5.0 18 18
r 0.326147 3 5 cbr 24 ------- 2 1.0 5.0 19 19
r 0.326288 2 3 cbr 1000 ------- 2 1.0 5.0 28 28
+ 0.326288 3 5 cbr 1000 ------- 2 1.0 5.0 28 28
- 0.326288 3 5 cbr 1000 ------- 2 1.0 5.0 28 28
r 0.326307 2 3 cbr 24 ------- 2 1.0 5.0 29 29
+ 0.326307 3 5 cbr 24 ------- 2 1.0 5.0 29 29
- 0.327088 3 5 cbr 24 ------- 2 1.0 5.0 29 29
+ 0.329376 1 2 cbr 1000 ------- 2 1.0 5.0 56 56
- 0.329376 1 2 cbr 1000 ------- 2 1.0 5.0 56 56
+ 0.329376 1 2 cbr 24 ------- 2 1.0 5.0 57 57
- 0.330176 1 2 cbr 24 ------- 2 1.0 5.0 57 57
r 0.331984 1 2 cbr 1000 ------- 2 1.0 5.0 54 54
+ 0.331984 2 3 cbr 1000 ------- 2 1.0 5.0 54 54
- 0.331984 2 3 cbr 1000 ------- 2 1.0 5.0 54 54
r 0.332003 1 2 cbr 24 ------- 2 1.0 5.0 55 55
+ 0.332003 2 3 cbr 24 ------- 2 1.0 5.0 55 55
- 0.332784 2 3 cbr 24 ------- 2 1.0 5.0 55 55
r 0.33432 3 5 cbr 1000 ------- 2 1.0 5.0 20 20
r 0.334339 3 5 cbr 24 ------- 2 1.0 5.0 21 21
r 0.33448 2 3 cbr 1000 ------- 2 1.0 5.0 30 30
+ 0.33448 3 5 cbr 1000 ------- 2 1.0 5.0 30 30
- 0.33448 3 5 cbr 1000 ------- 2 1.0 5.0 30 30
r 0.334499 2 3 cbr 24 ------- 2 1.0 5.0 31 31
+ 0.334499 3 5 cbr 24 ------- 2 1.0 5.0 31 31
- 0.33528 3 5 cbr 24 ------- 2 1.0 5.0 31 31
+ 0.337568 1 2 cbr 1000 ------- 2 1.0 5.0 58 58
- 0.337568 1 2 cbr 1000 ------- 2 1.0 5.0 58 58
+ 0.337568 1 2 cbr 24 ------- 2 1.0 5.0 59 59
- 0.338368 1 2 cbr 24 ------- 2 1.0 5.0 59 59
r 0.340176 1 2 cbr 1000 ------- 2 1.0 5.0 56 56
+ 0.340176 2 3 cbr 1000 ------- 2 1.0 5.0 56 56
- 0.340176 2 3 cbr 1000 ------- 2 1.0 5.0 56 56
r 0.340195 1 2 cbr 24 ------- 2 1.0 5.0 57 57
+ 0.340195 2 3 cbr 24 ------- 2 1.0 5.0 57 57
- 0.340976 2 3 cbr 24 ------- 2 1.0 5.0 57 57
r 0.342512 3 5 cbr 1000 ------- 2 1.0 5.0 22 22
r 0.342531 3 5 cbr 24 ------- 2 1.0 5.0 23 23
r 0.342672 2 3 cbr 1000 ------- 2 1.0 5.0 32 32
+ 0.342672 3 5 cbr 1000 ------- 2 1.0 5.0 32 32
- 0.342672 3 5 cbr 1000 ------- 2 1.0 5.0 32 32
r 0.342691 2 3 cbr 24 ------- 2 1.0 5.0 33 33
+ 0.342691 3 5 cbr 24 ------- 2 1.0 5.0 33 33
- 0.343472 3 5 cbr 24 ------- 2 1.0 5.0 33 33
+ 0.34576 1 2 cbr 1000 ------- 2 1.0 5.0 60 60
- 0.34576 1 2 cbr 1000 ------- 2 1.0 5.0 60 60
+ 0.34576 1 2 cbr 24 ------- 2 1.0 5.0 61 61
- 0.34656 1 2 cbr 24 ------- 2 1.0 5.0 61 61
r 0.348368 1 2 cbr 1000 ------- 2 1.0 5.0 58 58
+ 0.348368 2 3 cbr 1000 ------- 2 1.0 5.0 58 58
- 0.348368 2 3 cbr 1000 ------- 2 1.0 5.0 58 58
r 0.348387 1 2 cbr 24 ------- 2 1.0 5.0 59 59
+ 0.348387 2 3 cbr 24 ------- 2 1.0 5.0 59 59
- 0.349168 2 3 cbr 24 ------- 2 1.0 5.0 59 59
r 0.350704 3 5 cbr 1000 ------- 2 1.0 5.0 24 24
r 0.350723 3 5 cbr 24 ------- 2 1.0 5.0 25 25
r 0.350864 2 3 cbr 1000 ------- 2 1.0 5.0 34 34
+ 0.350864 3 5 cbr 1000 ------- 2 1.0 5.0 34 34
- 0.350864 3 5 cbr 1000 ------- 2 1.0 5.0 34 34
r 0.350883 2 3 cbr 24 ------- 2 1.0 5.0 35 35
+ 0.350883 3 5 cbr 24 ------- 2 1.0 5.0 35 35
- 0.351664 3 5 cbr 24 ------- 2 1.0 5.0 35 35
+ 0.353952 1 2 cbr 1000 ------- 2 1.0 5.0 62 62
- 0.353952 1 2 cbr 1000 ------- 2 1.0 5.0 62 62
+ 0.353952 1 2 cbr 24 ------- 2 1.0 5.0 63 63
- 0.354752 1 2 cbr 24 ------- 2 1.0 5.0 63 63
r 0.35656 1 2 cbr 1000 ------- 2 1.0 5.0 60 60
+ 0.35656 2 3 cbr 1000 ------- 2 1.0 5.0 60 60
- 0.35656 2 3 cbr 1000 ------- 2 1.0 5.0 60 60
r 0.356579 1 2 cbr 24 ------- 2 1.0 5.0 61 61
+ 0.356579 2 3 cbr 24 ------- 2 1.0 5.0 61 61
- 0.35736 2 3 cbr 24 ------- 2 1.0 5.0 61 61
r 0.358896 3 5 cbr 1000 ------- 2 1.0 5.0 26 26
r 0.358915 3 5 cbr 24 ------- 2 1.0 5.0 27 27
r 0.359056 2 3 cbr 1000 ------- 2 1.0 5.0 36 36
+ 0.359056 3 5 cbr 1000 ------- 2 1.0 5.0 36 36
- 0.359056 3 5 cbr 1000 ------- 2 1.0 5.0 36 36
r 0.359075 2 3 cbr 24 ------- 2 1.0 5.0 37 37
+ 0.359075 3 5 cbr 24 ------- 2 1.0 5.0 37 37
- 0.359856 3 5 cbr 24 ------- 2 1.0 5.0 37 37
+ 0.362144 1 2 cbr 1000 ------- 2 1.0 5.0 64 64
- 0.362144 1 2 cbr 1000 ------- 2 1.0 5.0 64 64
+ 0.362144 1 2 cbr 24 ------- 2 1.0 5.0 65 65
- 0.362944 1 2 cbr 24 ------- 2 1.0 5.0 65 65
r 0.364752 1 2 cbr 1000 ------- 2 1.0 5.0 62 62
+ 0.364752 2 3 cbr 1000 ------- 2 1.0 5.0 62 62
- 0.364752 2 3 cbr 1000 ------- 2 1.0 5.0 62 62
r 0.364771 1 2 cbr 24 ------- 2 1.0 5.0 63 63
+ 0.364771 2 3 cbr 24 ------- 2 1.0 5.0 63 63
- 0.365552 2 3 cbr 24 ------- 2 1.0 5.0 63 63
r 0.367088 3 5 cbr 1000 ------- 2 1.0 5.0 28 28
r 0.367107 3 5 cbr 24 ------- 2 1.0 5.0 29 29
r 0.367248 2 3 cbr 1000 ------- 2 1.0 5.0 38 38
+ 0.367248 3 5 cbr 1000 ------- 2 1.0 5.0 38 38
- 0.367248 3 5 cbr 1000 ------- 2 1.0 5.0 38 38
r 0.367267 2 3 cbr 24 ------- 2 1.0 5.0 39 39
+ 0.367267 3 5 cbr 24 ------- 2 1.0 5.0 39 39
- 0.368048 3 5 cbr 24 ------- 2 1.0 5.0 39 39
+ 0.370336 1 2 cbr 1000 ------- 2 1.0 5.0 66 66
- 0.370336 1 2 cbr 1000 ------- 2 1.0 5.0 66 66
+ 0.370336 1 2 cbr 24 ------- 2 1.0 5.0 67 67
- 0.371136 1 2 cbr 24 ------- 2 1.0 5.0 67 67
r 0.372944 1 2 cbr 1000 ------- 2 1.0 5.0 64 64
+ 0.372944 2 3 cbr 1000 ------- 2 1.0 5.0 64 64
- 0.372944 2 3 cbr 1000 ------- 2 1.0 5.0 64 64
r 0.372963 1 2 cbr 24 ------- 2 1.0 5.0 65 65
+ 0.372963 2 3 cbr 24 ------- 2 1.0 5.0 65 65
- 0.373744 2 3 cbr 24 ------- 2 1.0 5.0 65 65
r 0.37528 3 5 cbr 1000 ------- 2 1.0 5.0 30 30
r 0.375299 3 5 cbr 24 ------- 2 1.0 5.0 31 31
r 0.37544 2 3 cbr 1000 ------- 2 1.0 5.0 40 40
+ 0.37544 3 5 cbr 1000 ------- 2 1.0 5.0 40 40
- 0.37544 3 5 cbr 1000 ------- 2 1.0 5.0 40 40
r 0.375459 2 3 cbr 24 ------- 2 1.0 5.0 41 41
+ 0.375459 3 5 cbr 24 ------- 2 1.0 5.0 41 41
- 0.37624 3 5 cbr 24 ------- 2 1.0 5.0 41 41
+ 0.378528 1 2 cbr 1000 ------- 2 1.0 5.0 68 68
- 0.378528 1 2 cbr 1000 ------- 2 1.0 5.0 68 68
+ 0.378528 1 2 cbr 24 ------- 2 1.0 5.0 69 69
- 0.379328 1 2 cbr 24 ------- 2 1.0 5.0 69 69
r 0.381136 1 2 cbr 1000 ------- 2 1.0 5.0 66 66
+ 0.381136 2 3 cbr 1000 ------- 2 1.0 5.0 66 66
- 0.381136 2 3 cbr 1000 ------- 2 1.0 5.0 66 66
r 0.381155 1 2 cbr 24 ------- 2 1.0 5.0 67 67
+ 0.381155 2 3 cbr 24 ------- 2 1.0 5.0 67 67
- 0.381936 2 3 cbr 24 ------- 2 1.0 5.0 67 67
r 0.383472 3 5 cbr 1000 ------- 2 1.0 5.0 32 32
r 0.383491 3 5 cbr 24 ------- 2 1.0 5.0 33 33
r 0.383632 2 3 cbr 1000 ------- 2 1.0 5.0 42 42
+ 0.383632 3 5 cbr 1000 ------- 2 1.0 5.0 42 42
- 0.383632 3 5 cbr 1000 ------- 2 1.0 5.0 42 42
r 0.383651 2 3 cbr 24 ------- 2 1.0 5.0 43 43
+ 0.383651 3 5 cbr 24 ------- 2 1.0 5.0 43 43
- 0.384432 3 5 cbr 24 ------- 2 1.0 5.0 43 43
+ 0.38672 1 2 cbr 1000 ------- 2 1.0 5.0 70 70
- 0.38672 1 2 cbr 1000 ------- 2 1.0 5.0 70 70
+ 0.38672 1 2 cbr 24 ------- 2 1.0 5.0 71 71
- 0.38752 1 2 cbr 24 ------- 2 1.0 5.0 71 71
r 0.389328 1 2 cbr 1000 ------- 2 1.0 5.0 68 68
+ 0.389328 2 3 cbr 1000 ------- 2 1.0 5.0 68 68
- 0.389328 2 3 cbr 1000 ------- 2 1.0 5.0 68 68
r 0.389347 1 2 cbr 24 ------- 2 1.0 5.0 69 69
+ 0.389347 2 3 cbr 24 ------- 2 1.0 5.0 69 69
- 0.390128 2 3 cbr 24 ------- 2 1.0 5.0 69 69
r 0.391664 3 5 cbr 1000 ------- 2 1.0 5.0 34 34
r 0.391683 3 5 cbr 24 ------- 2 1.0 5.0 35 35
r 0.391824 2 3 cbr 1000 ------- 2 1.0 5.0 44 44
+ 0.391824 3 5 cbr 1000 ------- 2 1.0 5.0 44 44
- 0.391824 3 5 cbr 1000 ------- 2 1.0 5.0 44 44
r 0.391843 2 3 cbr 24 ------- 2 1.0 5.0 45 45
+ 0.391843 3 5 cbr 24 ------- 2 1.0 5.0 45 45
- 0.392624 3 5 cbr 24 ------- 2 1.0 5.0 45 45
+ 0.394912 1 2 cbr 1000 ------- 2 1.0 5.0 72 72
- 0.394912 1 2 cbr 1000 ------- 2 1.0 5.0 72 72
+ 0.394912 1 2 cbr 24 ------- 2 1.0 5.0 73 73
- 0.395712 1 2 cbr 24 ------- 2 1.0 5.0 73 73
r 0.39752 1 2 cbr 1000 ------- 2 1.0 5.0 70 70
+ 0.39752 2 3 cbr 1000 ------- 2 1.0 5.0 70 70
- 0.39752 2 3 cbr 1000 ------- 2 1.0 5.0 70 70
r 0.397539 1 2 cbr 24 ------- 2 1.0 5.0 71 71
+ 0.397539 2 3 cbr 24 ------- 2 1.0 5.0 71 71
- 0.39832 2 3 cbr 24 ------- 2 1.0 5.0 71 71
r 0.399856 3 5 cbr 1000 ------- 2 1.0 5.0 36 36
r 0.399875 3 5 cbr 24 ------- 2 1.0 5.0 37 37
r 0.400016 2 3 cbr 1000 ------- 2 1.0 5.0 46 46
+ 0.400016 3 5 cbr 1000 ------- 2 1.0 5.0 46 46
- 0.400016 3 5 cbr 1000 ------- 2 1.0 5.0 46 46
r 0.400035 2 3 cbr 24 ------- 2 1.0 5.0 47 47
+ 0.400035 3 5 cbr 24 ------- 2 1.0 5.0 47 47
- 0.400816 3 5 cbr 24 ------- 2 1.0 5.0 47 47
+ 0.403104 1 2 cbr 1000 ------- 2 1.0 5.0 74 74
- 0.403104 1 2 cbr 1000 ------- 2 1.0 5.0 74 74
+ 0.403104 1 2 cbr 24 ------- 2 1.0 5.0 75 75
- 0.403904 1 2 cbr 24 ------- 2 1.0 5.0 75 75
r 0.405712 1 2 cbr 1000 ------- 2 1.0 5.0 72 72
+ 0.405712 2 3 cbr 1000 ------- 2 1.0 5.0 72 72
- 0.405712 2 3 cbr 1000 ------- 2 1.0 5.0 72 72
r 0.405731 1 2 cbr 24 ------- 2 1.0 5.0 73 73
+ 0.405731 2 3 cbr 24 ------- 2 1.0 5.0 73 73
- 0.406512 2 3 cbr 24 ------- 2 1.0 5.0 73 73
r 0.408048 3 5 cbr 1000 ------- 2 1.0 5.0 38 38
r 0.408067 3 5 cbr 24 ------- 2 1.0 5.0 39 39
r 0.408208 2 3 cbr 1000 ------- 2 1.0 5.0 48 48
+ 0.408208 3 5 cbr 1000 ------- 2 1.0 5.0 48 48
- 0.408208 3 5 cbr 1000 ------- 2 1.0 5.0 48 48
r 0.408227 2 3 cbr 24 ------- 2 1.0 5.0 49 49
+ 0.408227 3 5 cbr 24 ------- 2 1.0 5.0 49 49
- 0.409008 3 5 cbr 24 ------- 2 1.0 5.0 49 49
+ 0.411296 1 2 cbr 1000 ------- 2 1.0 5.0 76 76
- 0.411296 1 2 cbr 1000 ------- 2 1.0 5.0 76 76
+ 0.411296 1 2 cbr 24 ------- 2 1.0 5.0 77 77
- 0.412096 1 2 cbr 24 ------- 2 1.0 5.0 77 77
r 0.413904 1 2 cbr 1000 ------- 2 1.0 5.0 74 74
+ 0.413904 2 3 cbr 1000 ------- 2 1.0 5.0 74 74
- 0.413904 2 3 cbr 1000 ------- 2 1.0 5.0 74 74
r 0.413923 1 2 cbr 24 ------- 2 1.0 5.0 75 75
+ 0.413923 2 3 cbr 24 ------- 2 1.0 5.0 75 75
- 0.414704 2 3 cbr 24 ------- 2 1.0 5.0 75 75
r 0.41624 3 5 cbr 1000 ------- 2 1.0 5.0 40 40
r 0.416259 3 5 cbr 24 ------- 2 1.0 5.0 41 41
r 0.4164 2 3 cbr 1000 ------- 2 1.0 5.0 50 50
+ 0.4164 3 5 cbr 1000 ------- 2 1.0 5.0 50 50
- 0.4164 3 5 cbr 1000 ------- 2 1.0 5.0 50 50
r 0.416419 2 3 cbr 24 ------- 2 1.0 5.0 51 51
+ 0.416419 3 5 cbr 24 ------- 2 1.0 5.0 51 51
- 0.4172 3 5 cbr 24 ------- 2 1.0 5.0 51 51
+ 0.419488 1 2 cbr 1000 ------- 2 1.0 5.0 78 78
- 0.419488 1 2 cbr 1000 ------- 2 1.0 5.0 78 78
+ 0.419488 1 2 cbr 24 ------- 2 1.0 5.0 79 79
- 0.420288 1 2 cbr 24 ------- 2 1.0 5.0 79 79
r 0.422096 1 2 cbr 1000 ------- 2 1.0 5.0 76 76
+ 0.422096 2 3 cbr 1000 ------- 2 1.0 5.0 76 76
- 0.422096 2 3 cbr 1000 ------- 2 1.0 5.0 76 76
r 0.422115 1 2 cbr 24 ------- 2 1.0 5.0 77 77
+ 0.422115 2 3 cbr 24 ------- 2 1.0 5.0 77 77
- 0.422896 2 3 cbr 24 ------- 2 1.0 5.0 77 77
r 0.424432 3 5 cbr 1000 ------- 2 1.0 5.0 42 42
r 0.424451 3 5 cbr 24 ------- 2 1.0 5.0 43 43
r 0.424592 2 3 cbr 1000 ------- 2 1.0 5.0 52 52
+ 0.424592 3 5 cbr 1000 ------- 2 1.0 5.0 52 52
- 0.424592 3 5 cbr 1000 ------- 2 1.0 5.0 52 52
r 0.424611 2 3 cbr 24 ------- 2 1.0 5.0 53 53
+ 0.424611 3 5 cbr 24 ------- 2 1.0 5.0 53 53
- 0.425392 3 5 cbr 24 ------- 2 1.0 5.0 53 53
+ 0.42768 1 2 cbr 1000 ------- 2 1.0 5.0 80 80
- 0.42768 1 2 cbr 1000 ------- 2 1.0 5.0 80 80
+ 0.42768 1 2 cbr 24 ------- 2 1.0 5.0 81 81
- 0.42848 1 2 cbr 24 ------- 2 1.0 5.0 81 81
r 0.430288 1 2 cbr 1000 ------- 2 1.0 5.0 78 78
+ 0.430288 2 3 cbr 1000 ------- 2 1.0 5.0 78 78
- 0.430288 2 3 cbr 1000 ------- 2 1.0 5.0 78 78
r 0.430307 1 2 cbr 24 ------- 2 1.0 5.0 79 79
+ 0.430307 2 3 cbr 24 ------- 2 1.0 5.0 79 79
- 0.431088 2 3 cbr 24 ------- 2 1.0 5.0 79 79
r 0.432624 3 5 cbr 1000 ------- 2 1.0 5.0 44 44
r 0.432643 3 5 cbr 24 ------- 2 1.0 5.0 45 45
r 0.432784 2 3 cbr 1000 ------- 2 1.0 5.0 54 54
+ 0.432784 3 5 cbr 1000 ------- 2 1.0 5.0 54 54
- 0.432784 3 5 cbr 1000 ------- 2 1.0 5.0 54 54
r 0.432803 2 3 cbr 24 ------- 2 1.0 5.0 55 55
+ 0.432803 3 5 cbr 24 ------- 2 1.0 5.0 55 55
- 0.433584 3 5 cbr 24 ------- 2 1.0 5.0 55 55
+ 0.435872 1 2 cbr 1000 ------- 2 1.0 5.0 82 82
- 0.435872 1 2 cbr 1000 ------- 2 1.0 5.0 82 82
+ 0.435872 1 2 cbr 24 ------- 2 1.0 5.0 83 83
- 0.436672 1 2 cbr 24 ------- 2 1.0 5.0 83 83
r 0.43848 1 2 cbr 1000 ------- 2 1.0 5.0 80 80
+ 0.43848 2 3 cbr 1000 ------- 2 1.0 5.0 80 80
- 0.43848 2 3 cbr 1000 ------- 2 1.0 5.0 80 80
r 0.438499 1 2 cbr 24 ------- 2 1.0 5.0 81 81
+ 0.438499 2 3 cbr 24 ------- 2 1.0 5.0 81 81
- 0.43928 2 3 cbr 24 ------- 2 1.0 5.0 81 81
r 0.440816 3 5 cbr 1000 ------- 2 1.0 5.0 46 46
r 0.440835 3 5 cbr 24 ------- 2 1.0 5.0 47 47
r 0.440976 2 3 cbr 1000 ------- 2 1.0 5.0 56 56
+ 0.440976 3 5 cbr 1000 ------- 2 1.0 5.0 56 56
- 0.440976 3 5 cbr 1000 ------- 2 1.0 5.0 56 56
r 0.440995 2 3 cbr 24 ------- 2 1.0 5.0 57 57
+ 0.440995 3 5 cbr 24 ------- 2 1.0 5.0 57 57
- 0.441776 3 5 cbr 24 ------- 2 1.0 5.0 57 57
+ 0.444064 1 2 cbr 1000 ------- 2 1.0 5.0 84 84
- 0.444064 1 2 cbr 1000 ------- 2 1.0 5.0 84 84
+ 0.444064 1 2 cbr 24 ------- 2 1.0 5.0 85 85
- 0.444864 1 2 cbr 24 ------- 2 1.0 5.0 85 85
r 0.446672 1 2 cbr 1000 ------- 2 1.0 5.0 82 82
+ 0.446672 2 3 cbr 1000 ------- 2 1.0 5.0 82 82
- 0.446672 2 3 cbr 1000 ------- 2 1.0 5.0 82 82
r 0.446691 1 2 cbr 24 ------- 2 1.0 5.0 83 83