V -t * -v 1.0a5 -a 0
A -t * -n 1 -p 0 -o 0x7fffffff -c 30 -a 1
A -t * -h 1 -m 1073741823 -s 0
c -t * -i 1 -n Blue
c -t * -i 2 -n Red
n -t * -a 4 -s 4 -S UP -v circle -c black -i black
n -t * -a 0 -s 0 -S UP -v circle -c black -i black
n -t * -a 5 -s 5 -S UP -v circle -c black -i black
n -t * -a 1 -s 1 -S UP -v circle -c black -i black
n -t * -a 2 -s 2 -S UP -v circle -c black -i black
n -t * -a 3 -s 3 -S UP -v circle -c black -i black
l -t * -s 0 -d 2 -S UP -r 10000000 -D 0.01 -c black -o right-down
l -t * -s 1 -d 2 -S UP -r 10000000 -D 0.01 -c black -o right-up
l -t * -s 2 -d 3 -S UP -r 10000000 -D 0.10000000000000001 -c black -o right
l -t * -s 3 -d 4 -S UP -r 10000000 -D 0.040000000000000001 -c black -o right-up
l -t * -s 3 -d 5 -S UP -r 10000000 -D 0.040000000000000001 -c black -o right-down
q -t * -s 2 -d 3 -a 0.5
q -t * -s 3 -d 2 -a 0.5
+ -t 0.1 -s 1 -d 2 -p cbr -e 1000 -c 2 -i 0 -a 2 -x {1.0 5.0 0 ------- null}
- -t 0.1 -s 1 -d 2 -p cbr -e 1000 -c 2 -i 0 -a 2 -x {1.0 5.0 0 ------- null}
h -t 0.1 -s 1 -d 2 -p cbr -e 1000 -c 2 -i 0 -a 2 -x {1.0 5.0 -1 ------- null}
+ -t 0.1 -s 1 -d 2 -p cbr -e 24 -c 2 -i 1 -a 2 -x {1.0 5.0 1 ------- null}
- -t 0.1008 -s 1 -d 2 -p cbr -e 24 -c 2 -i 1 -a 2 -x {1.0 5.0 1 ------- null}
h -t 0.1008 -s 1 -d 2 -p cbr -e 24 -c 2 -i 1 -a 2 -x {1.0 5.0 -1 ------- null}
+ -t 0.108192 -s 1 -d 2 -p cbr -e 1000 -c 2 -i 2 -a 2 -x {1.0 5.0 2 ------- null}
- -t 0.108192 -s 1 -d 2 -p cbr -e 1000 -c 2 -i 2 -a 2 -x {1.0 5.0 2 ------- null}
h -t 0.108192 -s 1 -d 2 -p cbr -e 1000 -c 2 -i 2 -a 2 -x {1.0 5.0 -1 ------- null}
+ -t 0.108192 -s 1 -d 2 -p cbr -e 24 -c 2 -i 3 -a 2 -x {1.0 5.0 3 ------- null}
- -t 0.108992 -s 1 -d 2 -p cbr -e 24 -c 2 -i 3 -a 2 -x {1.0 5.0 3 ------- null}
h -t 0.108992 -s 1 -d 2 -p cbr -e 24 -c 2 -i 3 -a 2 -x {1.0 5.0 -1 ------- null}
r -t 0.1108 -s 1 -d 2 -p cbr -e 1000 -c 2 -i 0 -a 2 -x {1.0 5.0 0 ------- null}
+ -t 0.1108 -s 2 -d 3 -p cbr -e 1000 -c 2 -i 0 -a 2 -x {1.0 5.0 0 ------- null}
- -t 0.1108 -s 2 -d 3 -p cbr -e 1000 -c 2 -i 0 -a 2 -x {1.0 5.0 0 ------- null}
h -t 0.1108 -s 2 -d 3 -p cbr -e 1000 -c 2 -i 0 -a 2 -x {1.0 5.0 -1 ------- null}
r -t 0.1108192 -s 1 -d 2 -p cbr -e 24 -c 2 -i 1 -a 2 -x {1.0 5.0 1 ------- null}
+ -t 0.1108192 -s 2 -d 3 -p cbr -e 24 -c 2 -i 1 -a 2 -x {1.0 5.0 1 ------- null}
- -t 0.1116 -s 2 -d 3 -p cbr -e 24 -c 2 -i 1 -a 2 -x {1.0 5.0 1 ------- null}
h -t 0.1116 -s 2 -d 3 -p cbr -e 24 -c 2 -i 1 -a 2 -x {1.0 5.0 -1 ------- null}
+ -t 0.116384 -s 1 -d 2 -p cbr -e 1000 -c 2 -i 4 -a 2 -x {1.0 5.0 4 ------- null}
- -t 0.116384 -s 1 -d 2 -p cbr -e 1000 -c 2 -i 4 -a 2 -x {1.0 5.0 4 ------- null}
h -t 0.116384 -s 1 -d 2 -p cbr -e 1000 -c 2 -i 4 -a 2 -x {1.0 5.0 -1 ------- null}
+ -t 0.116384 -s 1 -d 2 -p cbr -e 24 -c 2 -i 5 -a 2 -x {1.0 5.0 5 ------- null}
- -t 0.117184 -s 1 -d 2 -p cbr -e 24 -c 2 -i 5 -a 2 -x {1.0 5.0 5 ------- null}
h -t 0.117184 -s 1 -d 2 -p cbr -e 24 -c 2 -i 5 -a 2 -x {1.0 5.0 -1 ------- null}
r -t 0.118992 -s 1 -d 2 -p cbr -e 1000 -c 2 -i 2 -a 2 -x {1.0 5.0 2 ------- null}
+ -t 0.118992 -s 2 -d 3 -p cbr -e 1000 -c 2 -i 2 -a 2 -x {1.0 5.0 2 ------- null}
- -t 0.118992 -s 2 -d 3 -p cbr -e 1000 -c 2 -i 2 -a 2 -x {1.0 5.0 2 ------- null}
h -t 0.118992 -s 2 -d 3 -p cbr -e 1000 -c 2 -i 2 -a 2 -x {1.0 5.0 -1 ------- null}
r -t 0.1190112 -s 1 -d 2 -p cbr -e 24 -c 2 -i 3 -a 2 -x {1.0 5.0 3 ------- null}
+ -t 0.1190112 -s 2 -d 3 -p cbr -e 24 -c 2 -i 3 -a 2 -x {1.0 5.0 3 ------- null}
- -t 0.119792 -s 2 -d 3 -p cbr -e 24 -c 2 -i 3 -a 2 -x {1.0 5.0 3 ------- null}
h -t 0.119792 -s 2 -d 3 -p cbr -e 24 -c 2 -i 3 -a 2 -x {1.0 5.0 -1 ------- null}
+ -t 0.124576 -s 1 -d 2 -p cbr -e 1000 -c 2 -i 6 -a 2 -x {1.0 5.0 6 ------- null}
- -t 0.124576 -s 1 -d 2 -p cbr -e 1000 -c 2 -i 6 -a 2 -x {1.0 5.0 6 ------- null}
h -t 0.124576 -s 1 -d 2 -p cbr -e 1000 -c 2 -i 6 -a 2 -x {1.0 5.0 -1 ------- null}
+ -t 0.124576 -s 1 -d 2 -p cbr -e 24 -c 2 -i 7 -a 2 -x {1.0 5.0 7 ------- null}
- -t 0.125376 -s 1 -d 2 -p cbr -e 24 -c 2 -i 7 -a 2 -x {1.0 5.0 7 ------- null}
h -t 0.125376 -s 1 -d 2 -p cbr -e 24 -c 2 -i 7 -a 2 -x {1.0 5.0 -1 ------- null}
r -t 0.127184 -s 1 -d 2 -p cbr -e 1000 -c 2 -i 4 -a 2 -x {1.0 5.0 4 ------- null}
+ -t 0.127184 -s 2 -d 3 -p cbr -e 1000 -c 2 -i 4 -a 2 -x {1.0 5.0 4 ------- null}
- -t 0.127184 -s 2 -d 3 -p cbr -e 1000 -c 2 -i 4 -a 2 -x {1.0 5.0 4 ------- null}
h -t 0.127184 -s 2 -d 3 -p cbr -e 1000 -c 2 -i 4 -a 2 -x {1.0 5.0 -1 ------- null}
r -t 0.1272032 -s 1 -d 2 -p cbr -e 24 -c 2 -i 5 -a 2 -x {1.0 5.0 5 ------- null}
+ -t 0.1272032 -s 2 -d 3 -p cbr -e 24 -c 2 -i 5 -a 2 -x {1.0 5.0 5 ------- null}
- -t 0.127984 -s 2 -d 3 -p cbr -e 24 -c 2 -i 5 -a 2 -x {1.0 5.0 5 ------- null}
h -t 0.127984 -s 2 -d 3 -p cbr -e 24 -c 2 -i 5 -a 2 -x {1.0 5.0 -1 ------- null}
+ -t 0.132768 -s 1 -d 2 -p cbr -e 1000 -c 2 -i 8 -a 2 -x {1.0 5.0 8 ------- null}
- -t 0.132768 -s 1 -d 2 -p cbr -e 1000 -c 2 -i 8 -a 2 -x {1.0 5.0 8 ------- null}
h -t 0.132768 -s 1 -d 2 -p cbr -e 1000 -c 2 -i 8 -a 2 -x {1.0 5.0 -1 ------- null}
+ -t 0.132768 -s 1 -d 2 -p cbr -e 24 -c 2 -i 9 -a 2 -x {1.0 5.0 9 ------- null}
- -t 0.133568 -s 1 -d 2 -p cbr -e 24 -c 2 -i 9 -a 2 -x {1.0 5.0 9 ------- null}
h -t 0.133568 -s 1 -d 2 -p cbr -e 24 -c 2 -i 9 -a 2 -x {1.0 5.0 -1 ------- null}
r -t 0.135376 -s 1 -d 2 -p cbr -e 1000 -c 2 -i 6 -a 2 -x {1.0 5.0 6 ------- null}
+ -t 0.135376 -s 2 -d 3 -p cbr -e 1000 -c 2 -i 6 -a 2 -x {1.0 5.0 6 ------- null}
- -t 0.135376 -s 2 -d 3 -p cbr -e 1000 -c 2 -i 6 -a 2 -x {1.0 5.0 6 ------- null}
h -t 0.135376 -s 2 -d 3 -p cbr -e 1000 -c 2 -i 6 -a 2 -x {1.0 5.0 -1 ------- null}
r -t 0.1353952 -s 1 -d 2 -p cbr -e 24 -c 2 -i 7 -a 2 -x {1.0 5.0 7 ------- null}
+ -t 0.1353952 -s 2 -d 3 -p cbr -e 24 -c 2 -i 7 -a 2 -x {1.0 5.0 7 ------- null}
- -t 0.136176 -s 2 -d 3 -p cbr -e 24 -c 2 -i 7 -a 2 -x {1.0 5.0 7 ------- null}
h -t 0.136176 -s 2 -d 3 -p cbr -e 24 -c 2 -i 7 -a 2 -x {1.0 5.0 -1 ------- null}
+ -t 0.14096 -s 1 -d 2 -p cbr -e 1000 -c 2 -i 10 -a 2 -x {1.0 5.0 10 ------- null}
- -t 0.14096 -s 1 -d 2 -p cbr -e 1000 -c 2 -i 10 -a 2 -x {1.0 5.0 10 ------- null}
h -t 0.14096 -s 1 -d 2 -p cbr -e 1000 -c 2 -i 10 -a 2 -x {1.0 5.0 -1 ------- null}
+ -t 0.14096 -s 1 -d 2 -p cbr -e 24 -c 2 -i 11 -a 2 -x {1.0 5.0 11 ------- null}
- -t 0.14176 -s 1 -d 2 -p cbr -e 24 -c 2 -i 11 -a 2 -x {1.0 5.0 11 ------- null}
h -t 0.14176 -s 1 -d 2 -p cbr -e 24 -c 2 -i 11 -a 2 -x {1.0 5.0 -1 ------- null}
r -t 0.143568 -s 1 -d 2 -p cbr -e 1000 -c 2 -i 8 -a 2 -x {1.0 5.0 8 ------- null}
+ -t 0.143568 -s 2 -d 3 -p cbr -e 1000 -c 2 -i 8 -a 2 -x {1.0 5.0 8 ------- null}
- -t 0.143568 -s 2 -d 3 -p cbr -e 1000 -c 2 -i 8 -a 2 -x {1.0 5.0 8 ------- null}
h -t 0.143568 -s 2 -d 3 -p cbr -e 1000 -c 2 -i 8 -a 2 -x {1.0 5.0 -1 ------- null}
r -t 0.1435872 -s 1 -d 2 -p cbr -e 24 -c 2 -i 9 -a 2 -x {1.0 5.0 9 ------- null}
+ -t 0.1435872 -s 2 -d 3 -p cbr -e 24 -c 2 -i 9 -a 2 -x {1.0 5.0 9 ------- null}
- -t 0.144368 -s 2 -d 3 -p cbr -e 24 -c 2 -i 9 -a 2 -x {1.0 5.0 9 ------- null}
h -t 0.144368 -s 2 -d 3 -p cbr -e 24 -c 2 -i 9 -a 2 -x {1.0 5.0 -1 ------- null}
+ -t 0.149152 -s 1 -d 2 -p cbr -e 1000 -c 2 -i 12 -a 2 -x {1.0 5.0 12 ------- null}
- -t 0.149152 -s 1 -d 2 -p cbr -e 1000 -c 2 -i 12 -a 2 -x {1.0 5.0 12 ------- null}
h -t 0.149152 -s 1 -d 2 -p cbr -e 1000 -c 2 -i 12 -a 2 -x {1.0 5.0 -1 ------- null}
+ -t 0.149152 -s 1 -d 2 -p cbr -e 24 -c 2 -i 13 -a 2 -x {1.0 5.0 13 ------- null}
- -t 0.149952 -s 1 -d 2 -p cbr -e 24 -c 2 -i 13 -a 2 -x {1.0 5.0 13 ------- null}
h -t 0.149952 -s 1 -d 2 -p cbr -e 24 -c 2 -i 13 -a 2 -x {1.0 5.0 -1 ------- null}
r -t 0.15176 -s 1 -d 2 -p cbr -e 1000 -c 2 -i 10 -a 2 -x {1.0 5.0 10 ------- null}
+ -t 0.15176 -s 2 -d 3 -p cbr -e 1000 -c 2 -i 10 -a 2 -x {1.0 5.0 10 ------- null}
- -t 0.15176 -s 2 -d 3 -p cbr -e 1000 -c 2 -i 10 -a 2 -x {1.0 5.0 10 ------- null}
h -t 0.15176 -s 2 -d 3 -p cbr -e 1000 -c 2 -i 10 -a 2 -x {1.0 5.0 -1 ------- null}
r -t 0.1517792 -s 1 -d 2 -p cbr -e 24 -c 2 -i 11 -a 2 -x {1.0 5.0 11 ------- null}
+ -t 0.1517792 -s 2 -d 3 -p cbr -e 24 -c 2 -i 11 -a 2 -x {1.0 5.0 11 ------- null}
- -t 0.15256 -s 2 -d 3 -p cbr -e 24 -c 2 -i 11 -a 2 -x {1.0 5.0 11 ------- null}
h -t 0.15256 -s 2 -d 3 -p cbr -e 24 -c 2 -i 11 -a 2 -x {1.0 5.0 -1 ------- null}
+ -t 0.157344 -s 1 -d 2 -p cbr -e 1000 -c 2 -i 14 -a 2 -x {1.0 5.0 14 ------- null}
- -t 0.157344 -s 1 -d 2 -p cbr -e 1000 -c 2 -i 14 -a 2 -x {1.0 5.0 14 ------- null}
h -t 0.157344 -s 1 -d 2 -p cbr -e 1000 -c 2 -i 14 -a 2 -x {1.0 5.0 -1 ------- null}
+ -t 0.157344 -s 1 -d 2 -p cbr -e 24 -c 2 -i 15 -a 2 -x {1.0 5.0 15 ------- null}
- -t 0.158144 -s 1 -d 2 -p cbr -e 24 -c 2 -i 15 -a 2 -x {1.0 5.0 15 ------- null}
h -t 0.158144 -s 1 -d 2 -p cbr -e 24 -c 2 -i 15 -a 2 -x {1.0 5.0 -1 ------- null}
r -t 0.159952 -s 1 -d 2 -p cbr -e 1000 -c 2 -i 12 -a 2 -x {1.0 5.0 12 ------- null}
+ -t 0.159952 -s 2 -d 3 -p cbr -e 1000 -c 2 -i 12 -a 2 -x {1.0 5.0 12 ------- null}
- -t 0.159952 -s 2 -d 3 -p cbr -e 1000 -c 2 -i 12 -a 2 -x {1.0 5.0 12 ------- null}
h -t 0.159952 -s 2 -d 3 -p cbr -e 1000 -c 2 -i 12 -a 2 -x {1.0 5.0 -1 ------- null}
r -t 0.1599712 -s 1 -d 2 -p cbr -e 24 -c 2 -i 13 -a 2 -x {1.0 5.0 13 ------- null}
+ -t 0.1599712 -s 2 -d 3 -p cbr -e 24 -c 2 -i 13 -a 2 -x {1.0 5.0 13 ------- null}
- -t 0.160752 -s 2 -d 3 -p cbr -e 24 -c 2 -i 13 -a 2 -x {1.0 5.0 13 ------- null}
h -t 0.160752 -s 2 -d 3 -p cbr -e 24 -c 2 -i 13 -a 2 -x {1.0 5.0 -1 ------- null}
+ -t 0.165536 -s 1 -d 2 -p cbr -e 1000 -c 2 -i 16 -a 2 -x {1.0 5.0 16 ------- null}
- -t 0.165536 -s 1 -d 2 -p cbr -e 1000 -c 2 -i 16 -a 2 -x {1.0 5.0 16 ------- null}
h -t 0.165536 -s 1 -d 2 -p cbr -e 1000 -c 2 -i 16 -a 2 -x {1.0 5.0 -1 ------- null}
+ -t 0.165536 -s 1 -d 2 -p cbr -e 24 -c 2 -i 17 -a 2 -x {1.0 5.0 17 ------- null}
- -t 0.166336 -s 1 -d 2 -p cbr -e 24 -c 2 -i 17 -a 2 -x {1.0 5.0 17 ------- null}
h -t 0.166336 -s 1 -d 2 -p cbr -e 24 -c 2 -i 17 -a 2 -x {1.0 5.0 -1 ------- null}
r -t 0.168144 -s 1 -d 2 -p cbr -e 1000 -c 2 -i 14 -a 2 -x {1.0 5.0 14 ------- null}
+ -t 0.168144 -s 2 -d 3 -p cbr -e 1000 -c 2 -i 14 -a 2 -x {1.0 5.0 14 ------- null}
- -t 0.168144 -s 2 -d 3 -p cbr -e 1000 -c 2 -i 14 -a 2 -x {1.0 5.0 14 ------- null}
h -t 0.168144 -s 2 -d 3 -p cbr -e 1000 -c 2 -i 14 -a 2 -x {1.0 5.0 -1 ------- null}
r -t 0.1681632 -s 1 -d 2 -p cbr -e 24 -c 2 -i 15 -a 2 -x {1.0 5.0 15 ------- null}
+ -t 0.1681632 -s 2 -d 3 -p cbr -e 24 -c 2 -i 15 -a 2 -x {1.0 5.0 15 ------- null}
- -t 0.168944 -s 2 -d 3 -p cbr -e 24 -c 2 -i 15 -a 2 -x {1.0 5.0 15 ------- null}
h -t 0.168944 -s 2 -d 3 -p cbr -e 24 -c 2 -i 15 -a 2 -x {1.0 5.0 -1 ------- null}
+ -t 0.173728 -s 1 -d 2 -p cbr -e 1000 -c 2 -i 18 -a 2 -x {1.0 5.0 18 ------- null}
- -t 0.173728 -s 1 -d 2 -p cbr -e 1000 -c 2 -i 18 -a 2 -x {1.0 5.0 18 ------- null}
h -t 0.173728 -s 1 -d 2 -p cbr -e 1000 -c 2 -i 18 -a 2 -x {1.0 5.0 -1 ------- null}
+ -t 0.173728 -s 1 -d 2 -p cbr -e 24 -c 2 -i 19 -a 2 -x {1.0 5.0 19 ------- null}
- -t 0.174528 -s 1 -d 2 -p cbr -e 24 -c 2 -i 19 -a 2 -x {1.0 5.0 19 ------- null}
h -t 0.174528 -s 1 -d 2 -p cbr -e 24 -c 2 -i 19 -a 2 -x {1.0 5.0 -1 ------- null}
r -t 0.176336 -s 1 -d 2 -p cbr -e 1000 -c 2 -i 16 -a 2 -x {1.0 5.0 16 ------- null}
+ -t 0.176336 -s 2 -d 3 -p cbr -e 1000 -c 2 -i 16 -a 2 -x {1.0 5.0 16 ------- null}
- -t 0.176336 -s 2 -d 3 -p cbr -e 1000 -c 2 -i 16 -a 2 -x {1.0 5.0 16 ------- null}
h -t 0.176336 -s 2 -d 3 -p cbr -e 1000 -c 2 -i 16 -a 2 -x {1.0 5.0 -1 ------- null}
r -t 0.1763552 -s 1 -d 2 -p cbr -e 24 -c 2 -i 17 -a 2 -x {1.0 5.0 17 ------- null}
+ -t 0.1763552 -s 2 -d 3 -p cbr -e 24 -c 2 -i 17 -a 2 -x {1.0 5.0 17 ------- null}
- -t 0.177136 -s 2 -d 3 -p cbr -e 24 -c 2 -i 17 -a 2 -x {1.0 5.0 17 ------- null}
h -t 0.177136 -s 2 -d 3 -p cbr -e 24 -c 2 -i 17 -a 2 -x {1.0 5.0 -1 ------- null}
+ -t 0.18192 -s 1 -d 2 -p cbr -e 1000 -c 2 -i 20 -a 2 -x {1.0 5.0 20 ------- null}
- -t 0.18192 -s 1 -d 2 -p cbr -e 1000 -c 2 -i 20 -a 2 -x {1.0 5.0 20 ------- null}
h -t 0.18192 -s 1 -d 2 -p cbr -e 1000 -c 2 -i 20 -a 2 -x {1.0 5.0 -1 ------- null}
+ -t 0.18192 -s 1 -d 2 -p cbr -e 24 -c 2 -i 21 -a 2 -x {1.0 5.0 21 ------- null}
- -t 0.18272 -s 1 -d 2 -p cbr -e 24 -c 2 -i 21 -a 2 -x {1.0 5.0 21 ------- null}
h -t 0.18272 -s 1 -d 2 -p cbr -e 24 -c 2 -i 21 -a 2 -x {1.0 5.0 -1 ------- null}
r -t 0.184528 -s 1 -d 2 -p cbr -e 1000 -c 2 -i 18 -a 2 -x {1.0 5.0 18 ------- null}
+ -t 0.184528 -s 2 -d 3 -p cbr -e 1000 -c 2 -i 18 -a 2 -x {1.0 5.0 18 ------- null}
- -t 0.184528 -s 2 -d 3 -p cbr -e 1000 -c 2 -i 18 -a 2 -x {1.0 5.0 18 ------- null}
h -t 0.184528 -s 2 -d 3 -p cbr -e 1000 -c 2 -i 18 -a 2 -x {1.0 5.0 -1 ------- null}
r -t 0.1845472 -s 1 -d 2 -p cbr -e 24 -c 2 -i 19 -a 2 -x {1.0 5.0 19 ------- null}
+ -t 0.1845472 -s 2 -d 3 -p cbr -e 24 -c 2 -i 19 -a 2 -x {1.0 5.0 19 ------- null}
- -t 0.185328 -s 2 -d 3 -p cbr -e 24 -c 2 -i 19 -a 2 -x {1.0 5.0 19 ------- null}
h -t 0.185328 -s 2 -d 3 -p cbr -e 24 -c 2 -i 19 -a 2 -x {1.0 5.0 -1 ------- null}
+ -t 0.190112 -s 1 -d 2 -p cbr -e 1000 -c 2 -i 22 -a 2 -x {1.0 5.0 22 ------- null}
- -t 0.190112 -s 1 -d 2 -p cbr -e 1000 -c 2 -i 22 -a 2 -x {1.0 5.0 22 ------- null}
h -t 0.190112 -s 1 -d 2 -p cbr -e 1000 -c 2 -i 22 -a 2 -x {1.0 5.0 -1 ------- null}
+ -t 0.190112 -s 1 -d 2 -p cbr -e 24 -c 2 -i 23 -a 2 -x {1.0 5.0 23 ------- null}
- -t 0.190912 -s 1 -d 2 -p cbr -e 24 -c 2 -i 23 -a 2 -x {1.0 5.0 23 ------- null}
h -t 0.190912 -s 1 -d 2 -p cbr -e 24 -c 2 -i 23 -a 2 -x {1.0 5.0 -1 ------- null}
r -t 0.19272 -s 1 -d 2 -p cbr -e 1000 -c 2 -i 20 -a 2 -x {1.0 5.0 20 ------- null}
+ -t 0.19272 -s 2 -d 3 -p cbr -e 1000 -c 2 -i 20 -a 2 -x {1.0 5.0 20 ------- null}
- -t 0.19272 -s 2 -d 3 -p cbr -e 1000 -c 2 -i 20 -a 2 -x {1.0 5.0 20 ------- null}
h -t 0.19272 -s 2 -d 3 -p cbr -e 1000 -c 2 -i 20 -a 2 -x {1.0 5.0 -1 ------- null}
r -t 0.1927392 -s 1 -d 2 -p cbr -e 24 -c 2 -i 21 -a 2 -x {1.0 5.0 21 ------- null}
+ -t 0.1927392 -s 2 -d 3 -p cbr -e 24 -c 2 -i 21 -a 2 -x {1.0 5.0 21 ------- null}
- -t 0.19352 -s 2 -d 3 -p cbr -e 24 -c 2 -i 21 -a 2 -x {1.0 5.0 21 ------- null}
h -t 0.19352 -s 2 -d 3 -p cbr -e 24 -c 2 -i 21 -a 2 -x {1.0 5.0 -1 ------- null}
+ -t 0.198304 -s 1 -d 2 -p cbr -e 1000 -c 2 -i 24 -a 2 -x {1.0 5.0 24 ------- null}
- -t 0.198304 -s 1 -d 2 -p cbr -e 1000 -c 2 -i 24 -a 2 -x {1.0 5.0 24 ------- null}
h -t 0.198304 -s 1 -d 2 -p cbr -e 1000 -c 2 -i 24 -a 2 -x {1.0 5.0 -1 ------- null}
+ -t 0.198304 -s 1 -d 2 -p cbr -e 24 -c 2 -i 25 -a 2 -x {1.0 5.0 25 ------- null}
- -t 0.199104 -s 1 -d 2 -p cbr -e 24 -c 2 -i 25 -a 2 -x {1.0 5.0 25 ------- null}
h -t 0.199104 -s 1 -d 2 -p cbr -e 24 -c 2 -i 25 -a 2 -x {1.0 5.0 -1 ------- null}
r -t 0.200912 -s 1 -d 2 -p cbr -e 1000 -c 2 -i 22 -a 2 -x {1.0 5.0 22 ------- null}
+ -t 0.200912 -s 2 -d 3 -p cbr -e 1000 -c 2 -i 22 -a 2 -x {1.0 5.0 22 ------- null}
- -t 0.200912 -s 2 -d 3 -p cbr -e 1000 -c 2 -i 22 -a 2 -x {1.0 5.0 22 ------- null}
h -t 0.200912 -s 2 -d 3 -p cbr -e 1000 -c 2 -i 22 -a 2 -x {1.0 5.0 -1 ------- null}
r -t 0.2009312 -s 1 -d 2 -p cbr -e 24 -c 2 -i 23 -a 2 -x {1.0 5.0 23 ------- null}
+ -t 0.2009312 -s 2 -d 3 -p cbr -e 24 -c 2 -i 23 -a 2 -x {1.0 5.0 23 ------- null}
- -t 0.201712 -s 2 -d 3 -p cbr -e 24 -c 2 -i 23 -a 2 -x {1.0 5.0 23 ------- null}
h -t 0.201712 -s 2 -d 3 -p cbr -e 24 -c 2 -i 23 -a 2 -x {1.0 5.0 -1 ------- null}
+ -t 0.206496 -s 1 -d 2 -p cbr -e 1000 -c 2 -i 26 -a 2 -x {1.0 5.0 26 ------- null}
- -t 0.206496 -s 1 -d 2 -p cbr -e 1000 -c 2 -i 26 -a 2 -x {1.0 5.0 26 ------- null}
h -t 0.206496 -s 1 -d 2 -p cbr -e 1000 -c 2 -i 26 -a 2 -x {1.0 5.0 -1 ------- null}
+ -t 0.206496 -s 1 -d 2 -p cbr -e 24 -c 2 -i 27 -a 2 -x {1.0 5.0 27 ------- null}
- -t 0.207296 -s 1 -d 2 -p cbr -e 24 -c 2 -i 27 -a 2 -x {1.0 5.0 27 ------- null}
h -t 0.207296 -s 1 -d 2 -p cbr -e 24 -c 2 -i 27 -a 2 -x {1.0 5.0 -1 ------- null}
r -t 0.209104 -s 1 -d 2 -p cbr -e 1000 -c 2 -i 24 -a 2 -x {1.0 5.0 24 ------- null}
+ -t 0.209104 -s 2 -d 3 -p cbr -e 1000 -c 2 -i 24 -a 2 -x {1.0 5.0 24 ------- null}
- -t 0.209104 -s 2 -d 3 -p cbr -e 1000 -c 2 -i 24 -a 2 -x {1.0 5.0 24 ------- null}
h -t 0.209104 -s 2 -d 3 -p cbr -e 1000 -c 2 -i 24 -a 2 -x {1.0 5.0 -1 ------- null}
r -t 0.2091232 -s 1 -d 2 -p cbr -e 24 -c 2 -i 25 -a 2 -x {1.0 5.0 25 ------- null}
+ -t 0.2091232 -s 2 -d 3 -p cbr -e 24 -c 2 -i 25 -a 2 -x {1.0 5.0 25 ------- null}
- -t 0.209904 -s 2 -d 3 -p cbr -e 24 -c 2 -i 25 -a 2 -x {1.0 5.0 25 ------- null}
h -t 0.209904 -s 2 -d 3 -p cbr -e 24 -c 2 -i 25 -a 2 -x {1.0 5.0 -1 ------- null}
r -t 0.2116 -s 2 -d 3 -p cbr -e 1000 -c 2 -i 0 -a 2 -x {1.0 5.0 0 ------- null}
+ -t 0.2116 -s 3 -d 5 -p cbr -e 1000 -c 2 -i 0 -a 2 -x {1.0 5.0 0 ------- null}
- -t 0.2116 -s 3 -d 5 -p cbr -e 1000 -c 2 -i 0 -a 2 -x {1.0 5.0 0 ------- null}
h -t 0.2116 -s 3 -d 5 -p cbr -e 1000 -c 2 -i 0 -a 2 -x {1.0 5.0 -1 ------- null}
r -t 0.2116192 -s 2 -d 3 -p cbr -e 24 -c 2 -i 1 -a 2 -x {1.0 5.0 1 ------- null}
+ -t 0.2116192 -s 3 -d 5 -p cbr -e 24 -c 2 -i 1 -a 2 -x {1.0 5.0 1 ------- null}
- -t 0.2124 -s 3 -d 5 -p cbr -e 24 -c 2 -i 1 -a 2 -x {1.0 5.0 1 ------- null}
h -t 0.2124 -s 3 -d 5 -p cbr -e 24 -c 2 -i 1 -a 2 -x {1.0 5.0 -1 ------- null}
+ -t 0.214688 -s 1 -d 2 -p cbr -e 1000 -c 2 -i 28 -a 2 -x {1.0 5.0 28 ------- null}
- -t 0.214688 -s 1 -d 2 -p cbr -e 1000 -c 2 -i 28 -a 2 -x {1.0 5.0 28 ------- null}
h -t 0.214688 -s 1 -d 2 -p cbr -e 1000 -c 2 -i 28 -a 2 -x {1.0 5.0 -1 ------- null}
+ -t 0.214688 -s 1 -d 2 -p cbr -e 24 -c 2 -i 29 -a 2 -x {1.0 5.0 29 ------- null}
- -t 0.215488 -s 1 -d 2 -p cbr -e 24 -c 2 -i 29 -a 2 -x {1.0 5.0 29 ------- null}
h -t 0.215488 -s 1 -d 2 -p cbr -e 24 -c 2 -i 29 -a 2 -x {1.0 5.0 -1 ------- null}
r -t 0.217296 -s 1 -d 2 -p cbr -e 1000 -c 2 -i 26 -a 2 -x {1.0 5.0 26 ------- null}
+ -t 0.217296 -s 2 -d 3 -p cbr -e 1000 -c 2 -i 26 -a 2 -x {1.0 5.0 26 ------- null}
- -t 0.217296 -s 2 -d 3 -p cbr -e 1000 -c 2 -i 26 -a 2 -x {1.0 5.0 26 ------- null}
h -t 0.217296 -s 2 -d 3 -p cbr -e 1000 -c 2 -i 26 -a 2 -x {1.0 5.0 -1 ------- null}
r -t 0.2173152 -s 1 -d 2 -p cbr -e 24 -c 2 -i 27 -a 2 -x {1.0 5.0 27 ------- null}
+ -t 0.2173152 -s 2 -d 3 -p cbr -e 24 -c 2 -i 27 -a 2 -x {1.0 5.0 27 ------- null}
- -t 0.218096 -s 2 -d 3 -p cbr -e 24 -c 2 -i 27 -a 2 -x {1.0 5.0 27 ------- null}
h -t 0.218096 -s 2 -d 3 -p cbr -e 24 -c 2 -i 27 -a 2 -x {1.0 5.0 -1 ------- null}
r -t 0.219792 -s 2 -d 3 -p cbr -e 1000 -c 2 -i 2 -a 2 -x {1.0 5.0 2 ------- null}
+ -t 0.219792 -s 3 -d 5 -p cbr -e 1000 -c 2 -i 2 -a 2 -x {1.0 5.0 2 ------- null}
- -t 0.219792 -s 3 -d 5 -p cbr -e 1000 -c 2 -i 2 -a 2 -x {1.0 5.0 2 ------- null}
h -t 0.219792 -s 3 -d 5 -p cbr -e 1000 -c 2 -i 2 -a 2 -x {1.0 5.0 -1 ------- null}
r -t 0.2198112 -s 2 -d 3 -p cbr -e 24 -c 2 -i 3 -a 2 -x {1.0 5.0 3 ------- null}
+ -t 0.2198112 -s 3 -d 5 -p cbr -e 24 -c 2 -i 3 -a 2 -x {1.0 5.0 3 ------- null}
- -t 0.220592 -s 3 -d 5 -p cbr -e 24 -c 2 -i 3 -a 2 -x {1.0 5.0 3 ------- null}
h -t 0.220592 -s 3 -d 5 -p cbr -e 24 -c 2 -i 3 -a 2 -x {1.0 5.0 -1 ------- null}
+ -t 0.22288 -s 1 -d 2 -p cbr -e 1000 -c 2 -i 30 -a 2 -x {1.0 5.0 30 ------- null}
- -t 0.22288 -s 1 -d 2 -p cbr -e 1000 -c 2 -i 30 -a 2 -x {1.0 5.0 30 ------- null}
h -t 0.22288 -s 1 -d 2 -p cbr -e 1000 -c 2 -i 30 -a 2 -x {1.0 5.0 -1 ------- null}
+ -t 0.22288 -s 1 -d 2 -p cbr -e 24 -c 2 -i 31 -a 2 -x {1.0 5.0 31 ------- null}
- -t 0.22368 -s 1 -d 2 -p cbr -e 24 -c 2 -i 31 -a 2 -x {1.0 5.0 31 ------- null}
h -t 0.22368 -s 1 -d 2 -p cbr -e 24 -c 2 -i 31 -a 2 -x {1.0 5.0 -1 ------- null}
r -t 0.225488 -s 1 -d 2 -p cbr -e 1000 -c 2 -i 28 -a 2 -x {1.0 5.0 28 ------- null}
+ -t 0.225488 -s 2 -d 3 -p cbr -e 1000 -c 2 -i 28 -a 2 -x {1.0 5.0 28 ------- null}
- -t 0.225488 -s 2 -d 3 -p cbr -e 1000 -c 2 -i 28 -a 2 -x {1.0 5.0 28 ------- null}
h -t 0.225488 -s 2 -d 3 -p cbr -e 1000 -c 2 -i 28 -a 2 -x {1.0 5.0 -1 ------- null}
r -t 0.2255072 -s 1 -d 2 -p cbr -e 24 -c 2 -i 29 -a 2 -x {1.0 5.0 29 ------- null}
+ -t 0.2255072 -s 2 -d 3 -p cbr -e 24 -c 2 -i 29 -a 2 -x {1.0 5.0 29 ------- null}
- -t 0.226288 -s 2 -d 3 -p cbr -e 24 -c 2 -i 29 -a 2 -x {1.0 5.0 29 ------- null}
h -t 0.226288 -s 2 -d 3 -p cbr -e 24 -c 2 -i 29 -a 2 -x {1.0 5.0 -1 ------- null}
r -t 0.227984 -s 2 -d 3 -p cbr -e 1000 -c 2 -i 4 -a 2 -x {1.0 5.0 4 ------- null}
+ -t 0.227984 -s 3 -d 5 -p cbr -e 1000 -c 2 -i 4 -a 2 -x {1.0 5.0 4 ------- null}
- -t 0.227984 -s 3 -d 5 -p cbr -e 1000 -c 2 -i 4 -a 2 -x {1.0 5.0 4 ------- null}
h -t 0.227984 -s 3 -d 5 -p cbr -e 1000 -c 2 -i 4 -a 2 -x {1.0 5.0 -1 ------- null}
r -t 0.2280032 -s 2 -d 3 -p cbr -e 24 -c 2 -i 5 -a 2 -x {1.0 5.0 5 ------- null}
+ -t 0.2280032 -s 3 -d 5 -p cbr -e 24 -c 2 -i 5 -a 2 -x {1.0 5.0 5 ------- null}
- -t 0.228784 -s 3 -d 5 -p cbr -e 24 -c 2 -i 5 -a 2 -x {1.0 5.0 5 ------- null}
h -t 0.228784 -s 3 -d 5 -p cbr -e 24 -c 2 -i 5 -a 2 -x {1.0 5.0 -1 ------- null}
+ -t 0.231072 -s 1 -d 2 -p cbr -e 1000 -c 2 -i 32 -a 2 -x {1.0 5.0 32 ------- null}
- -t 0.231072 -s 1 -d 2 -p cbr -e 1000 -c 2 -i 32 -a 2 -x {1.0 5.0 32 ------- null}
h -t 0.231072 -s 1 -d 2 -p cbr -e 1000 -c 2 -i 32 -a 2 -x {1.0 5.0 -1 ------- null}
+ -t 0.231072 -s 1 -d 2 -p cbr -e 24 -c 2 -i 33 -a 2 -x {1.0 5.0 33 ------- null}
- -t 0.231872 -s 1 -d 2 -p cbr -e 24 -c 2 -i 33 -a 2 -x {1.0 5.0 33 ------- null}
h -t 0.231872 -s 1 -d 2 -p cbr -e 24 -c 2 -i 33 -a 2 -x {1.0 5.0 -1 ------- null}
r -t 0.23368 -s 1 -d 2 -p cbr -e 1000 -c 2 -i 30 -a 2 -x {1.0 5.0 30 ------- null}
+ -t 0.23368 -s 2 -d 3 -p cbr -e 1000 -c 2 -i 30 -a 2 -x {1.0 5.0 30 ------- null}
- -t 0.23368 -s 2 -d 3 -p cbr -e 1000 -c 2 -i 30 -a 2 -x {1.0 5.0 30 ------- null}
h -t 0.23368 -s 2 -d 3 -p cbr -e 1000 -c 2 -i 30 -a 2 -x {1.0 5.0 -1 ------- null}
r -t 0.2336992 -s 1 -d 2 -p cbr -e 24 -c 2 -i 31 -a 2 -x {1.0 5.0 31 ------- null}
+ -t 0.2336992 -s 2 -d 3 -p cbr -e 24 -c 2 -i 31 -a 2 -x {1.0 5.0 31 ------- null}
- -t 0.23448 -s 2 -d 3 -p cbr -e 24 -c 2 -i 31 -a 2 -x {1.0 5.0 31 ------- null}
h -t 0.23448 -s 2 -d 3 -p cbr -e 24 -c 2 -i 31 -a 2 -x {1.0 5.0 -1 ------- null}
r -t 0.236176 -s 2 -d 3 -p cbr -e 1000 -c 2 -i 6 -a 2 -x {1.0 5.0 6 ------- null}
+ -t 0.236176 -s 3 -d 5 -p cbr -e 1000 -c 2 -i 6 -a 2 -x {1.0 5.0 6 ------- null}
- -t 0.236176 -s 3 -d 5 -p cbr -e 1000 -c 2 -i 6 -a 2 -x {1.0 5.0 6 ------- null}
h -t 0.236176 -s 3 -d 5 -p cbr -e 1000 -c 2 -i 6 -a 2 -x {1.0 5.0 -1 ------- null}
r -t 0.2361952 -s 2 -d 3 -p cbr -e 24 -c 2 -i 7 -a 2 -x {1.0 5.0 7 ------- null}
+ -t 0.2361952 -s 3 -d 5 -p cbr -e 24 -c 2 -i 7 -a 2 -x {1.0 5.0 7 ------- null}
- -t 0.236976 -s 3 -d 5 -p cbr -e 24 -c 2 -i 7 -a 2 -x {1.0 5.0 7 ------- null}
h -t 0.236976 -s 3 -d 5 -p cbr -e 24 -c 2 -i 7 -a 2 -x {1.0 5.0 -1 ------- null}
+ -t 0.239264 -s 1 -d 2 -p cbr -e 1000 -c 2 -i 34 -a 2 -x {1.0 5.0 34 ------- null}
- -t 0.239264 -s 1 -d 2 -p cbr -e 1000 -c 2 -i 34 -a 2 -x {1.0 5.0 34 ------- null}
h -t 0.239264 -s 1 -d 2 -p cbr -e 1000 -c 2 -i 34 -a 2 -x {1.0 5.0 -1 ------- null}
+ -t 0.239264 -s 1 -d 2 -p cbr -e 24 -c 2 -i 35 -a 2 -x {1.0 5.0 35 ------- null}
- -t 0.240064 -s 1 -d 2 -p cbr -e 24 -c 2 -i 35 -a 2 -x {1.0 5.0 35 ------- null}
h -t 0.240064 -s 1 -d 2 -p cbr -e 24 -c 2 -i 35 -a 2 -x {1.0 5.0 -1 ------- null}
r -t 0.241872 -s 1 -d 2 -p cbr -e 1000 -c 2 -i 32 -a 2 -x {1.0 5.0 32 ------- null}
+ -t 0.241872 -s 2 -d 3 -p cbr -e 1000 -c 2 -i 32 -a 2 -x {1.0 5.0 32 ------- null}
- -t 0.241872 -s 2 -d 3 -p cbr -e 1000 -c 2 -i 32 -a 2 -x {1.0 5.0 32 ------- null}
h -t 0.241872 -s 2 -d 3 -p cbr -e 1000 -c 2 -i 32 -a 2 -x {1.0 5.0 -1 ------- null}
r -t 0.2418912 -s 1 -d 2 -p cbr -e 24 -c 2 -i 33 -a 2 -x {1.0 5.0 33 ------- null}
+ -t 0.2418912 -s 2 -d 3 -p cbr -e 24 -c 2 -i 33 -a 2 -x {1.0 5.0 33 ------- null}
- -t 0.242672 -s 2 -d 3 -p cbr -e 24 -c 2 -i 33 -a 2 -x {1.0 5.0 33 ------- null}
h -t 0.242672 -s 2 -d 3 -p cbr -e 24 -c 2 -i 33 -a 2 -x {1.0 5.0 -1 ------- null}
r -t 0.244368 -s 2 -d 3 -p cbr -e 1000 -c 2 -i 8 -a 2 -x {1.0 5.0 8 ------- null}
+ -t 0.244368 -s 3 -d 5 -p cbr -e 1000 -c 2 -i 8 -a 2 -x {1.0 5.0 8 ------- null}
- -t 0.244368 -s 3 -d 5 -p cbr -e 1000 -c 2 -i 8 -a 2 -x {1.0 5.0 8 ------- null}
h -t 0.244368 -s 3 -d 5 -p cbr -e 1000 -c 2 -i 8 -a 2 -x {1.0 5.0 -1 ------- null}
r -t 0.2443872 -s 2 -d 3 -p cbr -e 24 -c 2 -i 9 -a 2 -x {1.0 5.0 9 ------- null}
+ -t 0.2443872 -s 3 -d 5 -p cbr -e 24 -c 2 -i 9 -a 2 -x {1.0 5.0 9 ------- null}
- -t 0.245168 -s 3 -d 5 -p cbr -e 24 -c 2 -i 9 -a 2 -x {1.0 5.0 9 ------- null}
h -t 0.245168 -s 3 -d 5 -p cbr -e 24 -c 2 -i 9 -a 2 -x {1.0 5.0 -1 ------- null}
+ -t 0.247456 -s 1 -d 2 -p cbr -e 1000 -c 2 -i 36 -a 2 -x {1.0 5.0 36 ------- null}
- -t 0.247456 -s 1 -d 2 -p cbr -e 1000 -c 2 -i 36 -a 2 -x {1.0 5.0 36 ------- null}
h -t 0.247456 -s 1 -d 2 -p cbr -e 1000 -c 2 -i 36 -a 2 -x {1.0 5.0 -1 ------- null}
+ -t 0.247456 -s 1 -d 2 -p cbr -e 24 -c 2 -i 37 -a 2 -x {1.0 5.0 37 ------- null}
- -t 0.248256 -s 1 -d 2 -p cbr -e 24 -c 2 -i 37 -a 2 -x {1.0 5.0 37 ------- null}
h -t 0.248256 -s 1 -d 2 -p cbr -e 24 -c 2 -i 37 -a 2 -x {1.0 5.0 -1 ------- null}
r -t 0.250064 -s 1 -d 2 -p cbr -e 1000 -c 2 -i 34 -a 2 -x {1.0 5.0 34 ------- null}
+ -t 0.250064 -s 2 -d 3 -p cbr -e 1000 -c 2 -i 34 -a 2 -x {1.0 5.0 34 ------- null}
- -t 0.250064 -s 2 -d 3 -p cbr -e 1000 -c 2 -i 34 -a 2 -x {1.0 5.0 34 ------- null}
h -t 0.250064 -s 2 -d 3 -p cbr -e 1000 -c 2 -i 34 -a 2 -x {1.0 5.0 -1 ------- null}
r -t 0.2500832 -s 1 -d 2 -p cbr -e 24 -c 2 -i 35 -a 2 -x {1.0 5.0 35 ------- null}
+ -t 0.2500832 -s 2 -d 3 -p cbr -e 24 -c 2 -i 35 -a 2 -x {1.0 5.0 35 ------- null}
- -t 0.250864 -s 2 -d 3 -p cbr -e 24 -c 2 -i 35 -a 2 -x {1.0 5.0 35 ------- null}
h -t 0.250864 -s 2 -d 3 -p cbr -e 24 -c 2 -i 35 -a 2 -x {1.0 5.0 -1 ------- null}
r -t 0.2524 -s 3 -d 5 -p cbr -e 1000 -c 2 -i 0 -a 2 -x {1.0 5.0 0 ------- null}
r -t 0.2524192 -s 3 -d 5 -p cbr -e 24 -c 2 -i 1 -a 2 -x {1.0 5.0 1 ------- null}
r -t 0.25256 -s 2 -d 3 -p cbr -e 1000 -c 2 -i 10 -a 2 -x {1.0 5.0 10 ------- null}
+ -t 0.25256 -s 3 -d 5 -p cbr -e 1000 -c 2 -i 10 -a 2 -x {1.0 5.0 10 ------- null}
- -t 0.25256 -s 3 -d 5 -p cbr -e 1000 -c 2 -i 10 -a 2 -x {1.0 5.0 10 ------- null}
h -t 0.25256 -s 3 -d 5 -p cbr -e 1000 -c 2 -i 10 -a 2 -x {1.0 5.0 -1 ------- null}
r -t 0.2525792 -s 2 -d 3 -p cbr -e 24 -c 2 -i 11 -a 2 -x {1.0 5.0 11 ------- null}
+ -t 0.2525792 -s 3 -d 5 -p cbr -e 24 -c 2 -i 11 -a 2 -x {1.0 5.0 11 ------- null}
- -t 0.25336 -s 3 -d 5 -p cbr -e 24 -c 2 -i 11 -a 2 -x {1.0 5.0 11 ------- null}
h -t 0.25336 -s 3 -d 5 -p cbr -e 24 -c 2 -i 11 -a 2 -x {1.0 5.0 -1 ------- null}
+ -t 0.255648 -s 1 -d 2 -p cbr -e 1000 -c 2 -i 38 -a 2 -x {1.0 5.0 38 ------- null}
- -t 0.255648 -s 1 -d 2 -p cbr -e 1000 -c 2 -i 38 -a 2 -x {1.0 5.0 38 ------- null}
h -t 0.255648 -s 1 -d 2 -p cbr -e 1000 -c 2 -i 38 -a 2 -x {1.0 5.0 -1 ------- null}
+ -t 0.255648 -s 1 -d 2 -p cbr -e 24 -c 2 -i 39 -a 2 -x {1.0 5.0 39 ------- null}
- -t 0.256448 -s 1 -d 2 -p cbr -e 24 -c 2 -i 39 -a 2 -x {1.0 5.0 39 ------- null}
h -t 0.256448 -s 1 -d 2 -p cbr -e 24 -c 2 -i 39 -a 2 -x {1.0 5.0 -1 ------- null}
r -t 0.258256 -s 1 -d 2 -p cbr -e 1000 -c 2 -i 36 -a 2 -x {1.0 5.0 36 ------- null}
+ -t 0.258256 -s 2 -d 3 -p cbr -e 1000 -c 2 -i 36 -a 2 -x {1.0 5.0 36 ------- null}
- -t 0.258256 -s 2 -d 3 -p cbr -e 1000 -c 2 -i 36 -a 2 -x {1.0 5.0 36 ------- null}
h -t 0.258256 -s 2 -d 3 -p cbr -e 1000 -c 2 -i 36 -a 2 -x {1.0 5.0 -1 ------- null}
r -t 0.2582752 -s 1 -d 2 -p cbr -e 24 -c 2 -i 37 -a 2 -x {1.0 5.0 37 ------- null}
+ -t 0.2582752 -s 2 -d 3 -p cbr -e 24 -c 2 -i 37 -a 2 -x {1.0 5.0 37 ------- null}
- -t 0.259056 -s 2 -d 3 -p cbr -e 24 -c 2 -i 37 -a 2 -x {1.0 5.0 37 ------- null}
h -t 0.259056 -s 2 -d 3 -p cbr -e 24 -c 2 -i 37 -a 2 -x {1.0 5.0 -1 ------- null}
r -t 0.260592 -s 3 -d 5 -p cbr -e 1000 -c 2 -i 2 -a 2 -x {1.0 5.0 2 ------- null}
r -t 0.2606112 -s 3 -d 5 -p cbr -e 24 -c 2 -i 3 -a 2 -x {1.0 5.0 3 ------- null}
r -t 0.260752 -s 2 -d 3 -p cbr -e 1000 -c 2 -i 12 -a 2 -x {1.0 5.0 12 ------- null}
+ -t 0.260752 -s 3 -d 5 -p cbr -e 1000 -c 2 -i 12 -a 2 -x {1.0 5.0 12 ------- null}
- -t 0.260752 -s 3 -d 5 -p cbr -e 1000 -c 2 -i 12 -a 2 -x {1.0 5.0 12 ------- null}
h -t 0.260752 -s 3 -d 5 -p cbr -e 1000 -c 2 -i 12 -a 2 -x {1.0 5.0 -1 ------- null}
r -t 0.2607712 -s 2 -d 3 -p cbr -e 24 -c 2 -i 13 -a 2 -x {1.0 5.0 13 ------- null}
+ -t 0.2607712 -s 3 -d 5 -p cbr -e 24 -c 2 -i 13 -a 2 -x {1.0 5.0 13 ------- null}
- -t 0.261552 -s 3 -d 5 -p cbr -e 24 -c 2 -i 13 -a 2 -x {1.0 5.0 13 ------- null}
h -t 0.261552 -s 3 -d 5 -p cbr -e 24 -c 2 -i 13 -a 2 -x {1.0 5.0 -1 ------- null}
+ -t 0.26384 -s 1 -d 2 -p cbr -e 1000 -c 2 -i 40 -a 2 -x {1.0 5.0 40 ------- null}
- -t 0.26384 -s 1 -d 2 -p cbr -e 1000 -c 2 -i 40 -a 2 -x {1.0 5.0 40 ------- null}
h -t 0.26384 -s 1 -d 2 -p cbr -e 1000 -c 2 -i 40 -a 2 -x {1.0 5.0 -1 ------- null}
+ -t 0.26384 -s 1 -d 2 -p cbr -e 24 -c 2 -i 41 -a 2 -x {1.0 5.0 41 ------- null}
- -t 0.26464 -s 1 -d 2 -p cbr -e 24 -c 2 -i 41 -a 2 -x {1.0 5.0 41 ------- null}
h -t 0.26464 -s 1 -d 2 -p cbr -e 24 -c 2 -i 41 -a 2 -x {1.0 5.0 -1 ------- null}
r -t 0.266448 -s 1 -d 2 -p cbr -e 1000 -c 2 -i 38 -a 2 -x {1.0 5.0 38 ------- null}
+ -t 0.266448 -s 2 -d 3 -p cbr -e 1000 -c 2 -i 38 -a 2 -x {1.0 5.0 38 ------- null}
- -t 0.266448 -s 2 -d 3 -p cbr -e 1000 -c 2 -i 38 -a 2 -x {1.0 5.0 38 ------- null}
h -t 0.266448 -s 2 -d 3 -p cbr -e 1000 -c 2 -i 38 -a 2 -x {1.0 5.0 -1 ------- null}
r -t 0.2664672 -s 1 -d 2 -p cbr -e 24 -c 2 -i 39 -a 2 -x {1.0 5.0 39 ------- null}
+ -t 0.2664672 -s 2 -d 3 -p cbr -e 24 -c 2 -i 39 -a 2 -x {1.0 5.0 39 ------- null}
- -t 0.267248 -s 2 -d 3 -p cbr -e 24 -c 2 -i 39 -a 2 -x {1.0 5.0 39 ------- null}
h -t 0.267248 -s 2 -d 3 -p cbr -e 24 -c 2 -i 39 -a 2 -x {1.0 5.0 -1 ------- null}
r -t 0.268784 -s 3 -d 5 -p cbr -e 1000 -c 2 -i 4 -a 2 -x {1.0 5.0 4 ------- null}
r -t 0.2688032 -s 3 -d 5 -p cbr -e 24 -c 2 -i 5 -a 2 -x {1.0 5.0 5 ------- null}
r -t 0.268944 -s 2 -d 3 -p cbr -e 1000 -c 2 -i 14 -a 2 -x {1.0 5.0 14 ------- null}
+ -t 0.268944 -s 3 -d 5 -p cbr -e 1000 -c 2 -i 14 -a 2 -x {1.0 5.0 14 ------- null}
- -t 0.268944 -s 3 -d 5 -p cbr -e 1000 -c 2 -i 14 -a 2 -x {1.0 5.0 14 ------- null}
h -t 0.268944 -s 3 -d 5 -p cbr -e 1000 -c 2 -i 14 -a 2 -x {1.0 5.0 -1 ------- null}
r -t 0.2689632 -s 2 -d 3 -p cbr -e 24 -c 2 -i 15 -a 2 -x {1.0 5.0 15 ------- null}
+ -t 0.2689632 -s 3 -d 5 -p cbr -e 24 -c 2 -i 15 -a 2 -x {1.0 5.0 15 ------- null}