+ 0.2 0 1 tcp 40 ------- 1 0.0 2.0 0 0
- 0.2 0 1 tcp 40 ------- 1 0.0 2.0 0 0
r 0.210032 0 1 tcp 40 ------- 1 0.0 2.0 0 0
+ 0.210032 1 2 tcp 40 ------- 1 0.0 2.0 0 0
- 0.210032 1 2 tcp 40 ------- 1 0.0 2.0 0 0
r 0.220192 1 2 tcp 40 ------- 1 0.0 2.0 0 0
+ 0.220192 2 1 ack 40 ------- 1 2.0 0.0 0 1
- 0.220192 2 1 ack 40 ------- 1 2.0 0.0 0 1
r 0.230352 2 1 ack 40 ------- 1 2.0 0.0 0 1
+ 0.230352 1 0 ack 40 ------- 1 2.0 0.0 0 1
- 0.230352 1 0 ack 40 ------- 1 2.0 0.0 0 1
r 0.240384 1 0 ack 40 ------- 1 2.0 0.0 0 1
+ 0.240384 0 1 tcp 552 ------- 1 0.0 2.0 1 2
- 0.240384 0 1 tcp 552 ------- 1 0.0 2.0 1 2
+ 0.240384 0 1 tcp 552 ------- 1 0.0 2.0 2 3
- 0.240826 0 1 tcp 552 ------- 1 0.0 2.0 2 3
r 0.250826 0 1 tcp 552 ------- 1 0.0 2.0 1 2
+ 0.250826 1 2 tcp 552 ------- 1 0.0 2.0 1 2
- 0.250826 1 2 tcp 552 ------- 1 0.0 2.0 1 2
r 0.251267 0 1 tcp 552 ------- 1 0.0 2.0 2 3
+ 0.251267 1 2 tcp 552 ------- 1 0.0 2.0 2 3
- 0.253034 1 2 tcp 552 ------- 1 0.0 2.0 2 3
r 0.263034 1 2 tcp 552 ------- 1 0.0 2.0 1 2
r 0.265242 1 2 tcp 552 ------- 1 0.0 2.0 2 3
+ 0.265242 2 1 ack 40 ------- 1 2.0 0.0 2 4
- 0.265242 2 1 ack 40 ------- 1 2.0 0.0 2 4
r 0.275402 2 1 ack 40 ------- 1 2.0 0.0 2 4
+ 0.275402 1 0 ack 40 ------- 1 2.0 0.0 2 4
- 0.275402 1 0 ack 40 ------- 1 2.0 0.0 2 4
r 0.285434 1 0 ack 40 ------- 1 2.0 0.0 2 4
+ 0.285434 0 1 tcp 552 ------- 1 0.0 2.0 3 5
- 0.285434 0 1 tcp 552 ------- 1 0.0 2.0 3 5
+ 0.285434 0 1 tcp 552 ------- 1 0.0 2.0 4 6
+ 0.285434 0 1 tcp 552 ------- 1 0.0 2.0 5 7
- 0.285875 0 1 tcp 552 ------- 1 0.0 2.0 4 6
- 0.286317 0 1 tcp 552 ------- 1 0.0 2.0 5 7
r 0.295875 0 1 tcp 552 ------- 1 0.0 2.0 3 5
+ 0.295875 1 2 tcp 552 ------- 1 0.0 2.0 3 5
- 0.295875 1 2 tcp 552 ------- 1 0.0 2.0 3 5
r 0.296317 0 1 tcp 552 ------- 1 0.0 2.0 4 6
+ 0.296317 1 2 tcp 552 ------- 1 0.0 2.0 4 6
r 0.296758 0 1 tcp 552 ------- 1 0.0 2.0 5 7
+ 0.296758 1 2 tcp 552 ------- 1 0.0 2.0 5 7
- 0.298083 1 2 tcp 552 ------- 1 0.0 2.0 4 6
- 0.300291 1 2 tcp 552 ------- 1 0.0 2.0 5 7
r 0.308083 1 2 tcp 552 ------- 1 0.0 2.0 3 5
r 0.310291 1 2 tcp 552 ------- 1 0.0 2.0 4 6
+ 0.310291 2 1 ack 40 ------- 1 2.0 0.0 4 8
- 0.310291 2 1 ack 40 ------- 1 2.0 0.0 4 8
r 0.312499 1 2 tcp 552 ------- 1 0.0 2.0 5 7
r 0.320451 2 1 ack 40 ------- 1 2.0 0.0 4 8
+ 0.320451 1 0 ack 40 ------- 1 2.0 0.0 4 8
- 0.320451 1 0 ack 40 ------- 1 2.0 0.0 4 8
r 0.330483 1 0 ack 40 ------- 1 2.0 0.0 4 8
+ 0.330483 0 1 tcp 552 ------- 1 0.0 2.0 6 9
- 0.330483 0 1 tcp 552 ------- 1 0.0 2.0 6 9
+ 0.330483 0 1 tcp 552 ------- 1 0.0 2.0 7 10
+ 0.330483 0 1 tcp 552 ------- 1 0.0 2.0 8 11
- 0.330925 0 1 tcp 552 ------- 1 0.0 2.0 7 10
- 0.331366 0 1 tcp 552 ------- 1 0.0 2.0 8 11
r 0.340925 0 1 tcp 552 ------- 1 0.0 2.0 6 9
+ 0.340925 1 2 tcp 552 ------- 1 0.0 2.0 6 9
- 0.340925 1 2 tcp 552 ------- 1 0.0 2.0 6 9
r 0.341366 0 1 tcp 552 ------- 1 0.0 2.0 7 10
+ 0.341366 1 2 tcp 552 ------- 1 0.0 2.0 7 10
r 0.341808 0 1 tcp 552 ------- 1 0.0 2.0 8 11
+ 0.341808 1 2 tcp 552 ------- 1 0.0 2.0 8 11
- 0.343133 1 2 tcp 552 ------- 1 0.0 2.0 7 10
- 0.345341 1 2 tcp 552 ------- 1 0.0 2.0 8 11
r 0.353133 1 2 tcp 552 ------- 1 0.0 2.0 6 9
+ 0.353133 2 1 ack 40 ------- 1 2.0 0.0 6 12
- 0.353133 2 1 ack 40 ------- 1 2.0 0.0 6 12
r 0.355341 1 2 tcp 552 ------- 1 0.0 2.0 7 10
r 0.357549 1 2 tcp 552 ------- 1 0.0 2.0 8 11
+ 0.357549 2 1 ack 40 ------- 1 2.0 0.0 8 13
- 0.357549 2 1 ack 40 ------- 1 2.0 0.0 8 13
r 0.363293 2 1 ack 40 ------- 1 2.0 0.0 6 12
+ 0.363293 1 0 ack 40 ------- 1 2.0 0.0 6 12
- 0.363293 1 0 ack 40 ------- 1 2.0 0.0 6 12
r 0.367709 2 1 ack 40 ------- 1 2.0 0.0 8 13
+ 0.367709 1 0 ack 40 ------- 1 2.0 0.0 8 13
- 0.367709 1 0 ack 40 ------- 1 2.0 0.0 8 13
r 0.373325 1 0 ack 40 ------- 1 2.0 0.0 6 12
+ 0.373325 0 1 tcp 552 ------- 1 0.0 2.0 9 14
- 0.373325 0 1 tcp 552 ------- 1 0.0 2.0 9 14
+ 0.373325 0 1 tcp 552 ------- 1 0.0 2.0 10 15
+ 0.373325 0 1 tcp 552 ------- 1 0.0 2.0 11 16
- 0.373766 0 1 tcp 552 ------- 1 0.0 2.0 10 15
- 0.374208 0 1 tcp 552 ------- 1 0.0 2.0 11 16
r 0.377741 1 0 ack 40 ------- 1 2.0 0.0 8 13
+ 0.377741 0 1 tcp 552 ------- 1 0.0 2.0 12 17
- 0.377741 0 1 tcp 552 ------- 1 0.0 2.0 12 17
+ 0.377741 0 1 tcp 552 ------- 1 0.0 2.0 13 18
+ 0.377741 0 1 tcp 552 ------- 1 0.0 2.0 14 19
- 0.378182 0 1 tcp 552 ------- 1 0.0 2.0 13 18
- 0.378624 0 1 tcp 552 ------- 1 0.0 2.0 14 19
r 0.383766 0 1 tcp 552 ------- 1 0.0 2.0 9 14
+ 0.383766 1 2 tcp 552 ------- 1 0.0 2.0 9 14
- 0.383766 1 2 tcp 552 ------- 1 0.0 2.0 9 14
r 0.384208 0 1 tcp 552 ------- 1 0.0 2.0 10 15
+ 0.384208 1 2 tcp 552 ------- 1 0.0 2.0 10 15
r 0.38465 0 1 tcp 552 ------- 1 0.0 2.0 11 16
+ 0.38465 1 2 tcp 552 ------- 1 0.0 2.0 11 16
- 0.385974 1 2 tcp 552 ------- 1 0.0 2.0 10 15
r 0.388182 0 1 tcp 552 ------- 1 0.0 2.0 12 17
+ 0.388182 1 2 tcp 552 ------- 1 0.0 2.0 12 17
- 0.388182 1 2 tcp 552 ------- 1 0.0 2.0 11 16
r 0.388624 0 1 tcp 552 ------- 1 0.0 2.0 13 18
+ 0.388624 1 2 tcp 552 ------- 1 0.0 2.0 13 18
r 0.389066 0 1 tcp 552 ------- 1 0.0 2.0 14 19
+ 0.389066 1 2 tcp 552 ------- 1 0.0 2.0 14 19
- 0.39039 1 2 tcp 552 ------- 1 0.0 2.0 12 17
- 0.392598 1 2 tcp 552 ------- 1 0.0 2.0 13 18
- 0.394806 1 2 tcp 552 ------- 1 0.0 2.0 14 19
r 0.395974 1 2 tcp 552 ------- 1 0.0 2.0 9 14
r 0.398182 1 2 tcp 552 ------- 1 0.0 2.0 10 15
+ 0.398182 2 1 ack 40 ------- 1 2.0 0.0 10 20
- 0.398182 2 1 ack 40 ------- 1 2.0 0.0 10 20
r 0.40039 1 2 tcp 552 ------- 1 0.0 2.0 11 16
r 0.402598 1 2 tcp 552 ------- 1 0.0 2.0 12 17
+ 0.402598 2 1 ack 40 ------- 1 2.0 0.0 12 21
- 0.402598 2 1 ack 40 ------- 1 2.0 0.0 12 21
r 0.404806 1 2 tcp 552 ------- 1 0.0 2.0 13 18
r 0.407014 1 2 tcp 552 ------- 1 0.0 2.0 14 19
+ 0.407014 2 1 ack 40 ------- 1 2.0 0.0 14 22
- 0.407014 2 1 ack 40 ------- 1 2.0 0.0 14 22
r 0.408342 2 1 ack 40 ------- 1 2.0 0.0 10 20
+ 0.408342 1 0 ack 40 ------- 1 2.0 0.0 10 20
- 0.408342 1 0 ack 40 ------- 1 2.0 0.0 10 20
r 0.412758 2 1 ack 40 ------- 1 2.0 0.0 12 21
+ 0.412758 1 0 ack 40 ------- 1 2.0 0.0 12 21
- 0.412758 1 0 ack 40 ------- 1 2.0 0.0 12 21
r 0.417174 2 1 ack 40 ------- 1 2.0 0.0 14 22
+ 0.417174 1 0 ack 40 ------- 1 2.0 0.0 14 22
- 0.417174 1 0 ack 40 ------- 1 2.0 0.0 14 22
r 0.418374 1 0 ack 40 ------- 1 2.0 0.0 10 20
+ 0.418374 0 1 tcp 552 ------- 1 0.0 2.0 15 23
- 0.418374 0 1 tcp 552 ------- 1 0.0 2.0 15 23
+ 0.418374 0 1 tcp 552 ------- 1 0.0 2.0 16 24
+ 0.418374 0 1 tcp 552 ------- 1 0.0 2.0 17 25
- 0.418816 0 1 tcp 552 ------- 1 0.0 2.0 16 24
- 0.419258 0 1 tcp 552 ------- 1 0.0 2.0 17 25
r 0.42279 1 0 ack 40 ------- 1 2.0 0.0 12 21
+ 0.42279 0 1 tcp 552 ------- 1 0.0 2.0 18 26
- 0.42279 0 1 tcp 552 ------- 1 0.0 2.0 18 26
+ 0.42279 0 1 tcp 552 ------- 1 0.0 2.0 19 27
+ 0.42279 0 1 tcp 552 ------- 1 0.0 2.0 20 28
- 0.423232 0 1 tcp 552 ------- 1 0.0 2.0 19 27
- 0.423674 0 1 tcp 552 ------- 1 0.0 2.0 20 28
r 0.427206 1 0 ack 40 ------- 1 2.0 0.0 14 22
+ 0.427206 0 1 tcp 552 ------- 1 0.0 2.0 21 29
- 0.427206 0 1 tcp 552 ------- 1 0.0 2.0 21 29
+ 0.427206 0 1 tcp 552 ------- 1 0.0 2.0 22 30
+ 0.427206 0 1 tcp 552 ------- 1 0.0 2.0 23 31
- 0.427648 0 1 tcp 552 ------- 1 0.0 2.0 22 30
- 0.42809 0 1 tcp 552 ------- 1 0.0 2.0 23 31
r 0.428816 0 1 tcp 552 ------- 1 0.0 2.0 15 23
+ 0.428816 1 2 tcp 552 ------- 1 0.0 2.0 15 23
- 0.428816 1 2 tcp 552 ------- 1 0.0 2.0 15 23
r 0.429258 0 1 tcp 552 ------- 1 0.0 2.0 16 24
+ 0.429258 1 2 tcp 552 ------- 1 0.0 2.0 16 24
r 0.429699 0 1 tcp 552 ------- 1 0.0 2.0 17 25
+ 0.429699 1 2 tcp 552 ------- 1 0.0 2.0 17 25
- 0.431024 1 2 tcp 552 ------- 1 0.0 2.0 16 24
r 0.433232 0 1 tcp 552 ------- 1 0.0 2.0 18 26
+ 0.433232 1 2 tcp 552 ------- 1 0.0 2.0 18 26
- 0.433232 1 2 tcp 552 ------- 1 0.0 2.0 17 25
r 0.433674 0 1 tcp 552 ------- 1 0.0 2.0 19 27
+ 0.433674 1 2 tcp 552 ------- 1 0.0 2.0 19 27
r 0.434115 0 1 tcp 552 ------- 1 0.0 2.0 20 28
+ 0.434115 1 2 tcp 552 ------- 1 0.0 2.0 20 28
- 0.43544 1 2 tcp 552 ------- 1 0.0 2.0 18 26
r 0.437648 0 1 tcp 552 ------- 1 0.0 2.0 21 29
+ 0.437648 1 2 tcp 552 ------- 1 0.0 2.0 21 29
- 0.437648 1 2 tcp 552 ------- 1 0.0 2.0 19 27
r 0.43809 0 1 tcp 552 ------- 1 0.0 2.0 22 30
+ 0.43809 1 2 tcp 552 ------- 1 0.0 2.0 22 30
r 0.438531 0 1 tcp 552 ------- 1 0.0 2.0 23 31
+ 0.438531 1 2 tcp 552 ------- 1 0.0 2.0 23 31
- 0.439856 1 2 tcp 552 ------- 1 0.0 2.0 20 28
r 0.441024 1 2 tcp 552 ------- 1 0.0 2.0 15 23
- 0.442064 1 2 tcp 552 ------- 1 0.0 2.0 21 29
r 0.443232 1 2 tcp 552 ------- 1 0.0 2.0 16 24
+ 0.443232 2 1 ack 40 ------- 1 2.0 0.0 16 32
- 0.443232 2 1 ack 40 ------- 1 2.0 0.0 16 32
- 0.444272 1 2 tcp 552 ------- 1 0.0 2.0 22 30
r 0.44544 1 2 tcp 552 ------- 1 0.0 2.0 17 25
- 0.44648 1 2 tcp 552 ------- 1 0.0 2.0 23 31
r 0.447648 1 2 tcp 552 ------- 1 0.0 2.0 18 26
+ 0.447648 2 1 ack 40 ------- 1 2.0 0.0 18 33
- 0.447648 2 1 ack 40 ------- 1 2.0 0.0 18 33
r 0.449856 1 2 tcp 552 ------- 1 0.0 2.0 19 27
r 0.452064 1 2 tcp 552 ------- 1 0.0 2.0 20 28
+ 0.452064 2 1 ack 40 ------- 1 2.0 0.0 20 34
- 0.452064 2 1 ack 40 ------- 1 2.0 0.0 20 34
r 0.453392 2 1 ack 40 ------- 1 2.0 0.0 16 32
+ 0.453392 1 0 ack 40 ------- 1 2.0 0.0 16 32
- 0.453392 1 0 ack 40 ------- 1 2.0 0.0 16 32
r 0.454272 1 2 tcp 552 ------- 1 0.0 2.0 21 29
r 0.45648 1 2 tcp 552 ------- 1 0.0 2.0 22 30
+ 0.45648 2 1 ack 40 ------- 1 2.0 0.0 22 35
- 0.45648 2 1 ack 40 ------- 1 2.0 0.0 22 35
r 0.457808 2 1 ack 40 ------- 1 2.0 0.0 18 33
+ 0.457808 1 0 ack 40 ------- 1 2.0 0.0 18 33
- 0.457808 1 0 ack 40 ------- 1 2.0 0.0 18 33
r 0.458688 1 2 tcp 552 ------- 1 0.0 2.0 23 31
r 0.462224 2 1 ack 40 ------- 1 2.0 0.0 20 34
+ 0.462224 1 0 ack 40 ------- 1 2.0 0.0 20 34
- 0.462224 1 0 ack 40 ------- 1 2.0 0.0 20 34
r 0.463424 1 0 ack 40 ------- 1 2.0 0.0 16 32
+ 0.463424 0 1 tcp 552 ------- 1 0.0 2.0 24 36
- 0.463424 0 1 tcp 552 ------- 1 0.0 2.0 24 36
+ 0.463424 0 1 tcp 552 ------- 1 0.0 2.0 25 37
+ 0.463424 0 1 tcp 552 ------- 1 0.0 2.0 26 38
- 0.463866 0 1 tcp 552 ------- 1 0.0 2.0 25 37
- 0.464307 0 1 tcp 552 ------- 1 0.0 2.0 26 38
r 0.46664 2 1 ack 40 ------- 1 2.0 0.0 22 35
+ 0.46664 1 0 ack 40 ------- 1 2.0 0.0 22 35
- 0.46664 1 0 ack 40 ------- 1 2.0 0.0 22 35
r 0.46784 1 0 ack 40 ------- 1 2.0 0.0 18 33
+ 0.46784 0 1 tcp 552 ------- 1 0.0 2.0 27 39
- 0.46784 0 1 tcp 552 ------- 1 0.0 2.0 27 39
+ 0.46784 0 1 tcp 552 ------- 1 0.0 2.0 28 40
+ 0.46784 0 1 tcp 552 ------- 1 0.0 2.0 29 41
- 0.468282 0 1 tcp 552 ------- 1 0.0 2.0 28 40
- 0.468723 0 1 tcp 552 ------- 1 0.0 2.0 29 41
r 0.472256 1 0 ack 40 ------- 1 2.0 0.0 20 34
+ 0.472256 0 1 tcp 552 ------- 1 0.0 2.0 30 42
- 0.472256 0 1 tcp 552 ------- 1 0.0 2.0 30 42
+ 0.472256 0 1 tcp 552 ------- 1 0.0 2.0 31 43
+ 0.472256 0 1 tcp 552 ------- 1 0.0 2.0 32 44
- 0.472698 0 1 tcp 552 ------- 1 0.0 2.0 31 43
- 0.473139 0 1 tcp 552 ------- 1 0.0 2.0 32 44
r 0.473866 0 1 tcp 552 ------- 1 0.0 2.0 24 36
+ 0.473866 1 2 tcp 552 ------- 1 0.0 2.0 24 36
- 0.473866 1 2 tcp 552 ------- 1 0.0 2.0 24 36
r 0.474307 0 1 tcp 552 ------- 1 0.0 2.0 25 37
+ 0.474307 1 2 tcp 552 ------- 1 0.0 2.0 25 37
r 0.474749 0 1 tcp 552 ------- 1 0.0 2.0 26 38
+ 0.474749 1 2 tcp 552 ------- 1 0.0 2.0 26 38
- 0.476074 1 2 tcp 552 ------- 1 0.0 2.0 25 37
r 0.476672 1 0 ack 40 ------- 1 2.0 0.0 22 35
+ 0.476672 0 1 tcp 552 ------- 1 0.0 2.0 33 45
- 0.476672 0 1 tcp 552 ------- 1 0.0 2.0 33 45
+ 0.476672 0 1 tcp 552 ------- 1 0.0 2.0 34 46
+ 0.476672 0 1 tcp 552 ------- 1 0.0 2.0 35 47
- 0.477114 0 1 tcp 552 ------- 1 0.0 2.0 34 46
- 0.477555 0 1 tcp 552 ------- 1 0.0 2.0 35 47
r 0.478282 0 1 tcp 552 ------- 1 0.0 2.0 27 39
+ 0.478282 1 2 tcp 552 ------- 1 0.0 2.0 27 39
- 0.478282 1 2 tcp 552 ------- 1 0.0 2.0 26 38
r 0.478723 0 1 tcp 552 ------- 1 0.0 2.0 28 40
+ 0.478723 1 2 tcp 552 ------- 1 0.0 2.0 28 40
r 0.479165 0 1 tcp 552 ------- 1 0.0 2.0 29 41
+ 0.479165 1 2 tcp 552 ------- 1 0.0 2.0 29 41
- 0.48049 1 2 tcp 552 ------- 1 0.0 2.0 27 39
r 0.482698 0 1 tcp 552 ------- 1 0.0 2.0 30 42
+ 0.482698 1 2 tcp 552 ------- 1 0.0 2.0 30 42
- 0.482698 1 2 tcp 552 ------- 1 0.0 2.0 28 40
r 0.483139 0 1 tcp 552 ------- 1 0.0 2.0 31 43
+ 0.483139 1 2 tcp 552 ------- 1 0.0 2.0 31 43
r 0.483581 0 1 tcp 552 ------- 1 0.0 2.0 32 44
+ 0.483581 1 2 tcp 552 ------- 1 0.0 2.0 32 44
- 0.484906 1 2 tcp 552 ------- 1 0.0 2.0 29 41
r 0.486074 1 2 tcp 552 ------- 1 0.0 2.0 24 36
+ 0.486074 2 1 ack 40 ------- 1 2.0 0.0 24 48
- 0.486074 2 1 ack 40 ------- 1 2.0 0.0 24 48
r 0.487114 0 1 tcp 552 ------- 1 0.0 2.0 33 45
+ 0.487114 1 2 tcp 552 ------- 1 0.0 2.0 33 45
- 0.487114 1 2 tcp 552 ------- 1 0.0 2.0 30 42
r 0.487555 0 1 tcp 552 ------- 1 0.0 2.0 34 46
+ 0.487555 1 2 tcp 552 ------- 1 0.0 2.0 34 46
r 0.487997 0 1 tcp 552 ------- 1 0.0 2.0 35 47
+ 0.487997 1 2 tcp 552 ------- 1 0.0 2.0 35 47
r 0.488282 1 2 tcp 552 ------- 1 0.0 2.0 25 37
- 0.489322 1 2 tcp 552 ------- 1 0.0 2.0 31 43
r 0.49049 1 2 tcp 552 ------- 1 0.0 2.0 26 38
+ 0.49049 2 1 ack 40 ------- 1 2.0 0.0 26 49
- 0.49049 2 1 ack 40 ------- 1 2.0 0.0 26 49
- 0.49153 1 2 tcp 552 ------- 1 0.0 2.0 32 44
r 0.492698 1 2 tcp 552 ------- 1 0.0 2.0 27 39
- 0.493738 1 2 tcp 552 ------- 1 0.0 2.0 33 45
r 0.494906 1 2 tcp 552 ------- 1 0.0 2.0 28 40
+ 0.494906 2 1 ack 40 ------- 1 2.0 0.0 28 50
- 0.494906 2 1 ack 40 ------- 1 2.0 0.0 28 50
- 0.495946 1 2 tcp 552 ------- 1 0.0 2.0 34 46
r 0.496234 2 1 ack 40 ------- 1 2.0 0.0 24 48
+ 0.496234 1 0 ack 40 ------- 1 2.0 0.0 24 48
- 0.496234 1 0 ack 40 ------- 1 2.0 0.0 24 48
r 0.497114 1 2 tcp 552 ------- 1 0.0 2.0 29 41
- 0.498154 1 2 tcp 552 ------- 1 0.0 2.0 35 47
r 0.499322 1 2 tcp 552 ------- 1 0.0 2.0 30 42
+ 0.499322 2 1 ack 40 ------- 1 2.0 0.0 30 51
- 0.499322 2 1 ack 40 ------- 1 2.0 0.0 30 51
r 0.50065 2 1 ack 40 ------- 1 2.0 0.0 26 49
+ 0.50065 1 0 ack 40 ------- 1 2.0 0.0 26 49
- 0.50065 1 0 ack 40 ------- 1 2.0 0.0 26 49
r 0.50153 1 2 tcp 552 ------- 1 0.0 2.0 31 43
r 0.503738 1 2 tcp 552 ------- 1 0.0 2.0 32 44
+ 0.503738 2 1 ack 40 ------- 1 2.0 0.0 32 52
- 0.503738 2 1 ack 40 ------- 1 2.0 0.0 32 52
r 0.505066 2 1 ack 40 ------- 1 2.0 0.0 28 50
+ 0.505066 1 0 ack 40 ------- 1 2.0 0.0 28 50
- 0.505066 1 0 ack 40 ------- 1 2.0 0.0 28 50
r 0.505946 1 2 tcp 552 ------- 1 0.0 2.0 33 45
r 0.506266 1 0 ack 40 ------- 1 2.0 0.0 24 48
+ 0.506266 0 1 tcp 552 ------- 1 0.0 2.0 36 53
- 0.506266 0 1 tcp 552 ------- 1 0.0 2.0 36 53
+ 0.506266 0 1 tcp 552 ------- 1 0.0 2.0 37 54
+ 0.506266 0 1 tcp 552 ------- 1 0.0 2.0 38 55
- 0.506707 0 1 tcp 552 ------- 1 0.0 2.0 37 54
- 0.507149 0 1 tcp 552 ------- 1 0.0 2.0 38 55
r 0.508154 1 2 tcp 552 ------- 1 0.0 2.0 34 46
+ 0.508154 2 1 ack 40 ------- 1 2.0 0.0 34 56
- 0.508154 2 1 ack 40 ------- 1 2.0 0.0 34 56
r 0.509482 2 1 ack 40 ------- 1 2.0 0.0 30 51
+ 0.509482 1 0 ack 40 ------- 1 2.0 0.0 30 51
- 0.509482 1 0 ack 40 ------- 1 2.0 0.0 30 51
r 0.510362 1 2 tcp 552 ------- 1 0.0 2.0 35 47
r 0.510682 1 0 ack 40 ------- 1 2.0 0.0 26 49
+ 0.510682 0 1 tcp 552 ------- 1 0.0 2.0 39 57
- 0.510682 0 1 tcp 552 ------- 1 0.0 2.0 39 57
+ 0.510682 0 1 tcp 552 ------- 1 0.0 2.0 40 58
+ 0.510682 0 1 tcp 552 ------- 1 0.0 2.0 41 59
- 0.511123 0 1 tcp 552 ------- 1 0.0 2.0 40 58
- 0.511565 0 1 tcp 552 ------- 1 0.0 2.0 41 59
r 0.513898 2 1 ack 40 ------- 1 2.0 0.0 32 52
+ 0.513898 1 0 ack 40 ------- 1 2.0 0.0 32 52
- 0.513898 1 0 ack 40 ------- 1 2.0 0.0 32 52
r 0.515098 1 0 ack 40 ------- 1 2.0 0.0 28 50
+ 0.515098 0 1 tcp 552 ------- 1 0.0 2.0 42 60
- 0.515098 0 1 tcp 552 ------- 1 0.0 2.0 42 60
+ 0.515098 0 1 tcp 552 ------- 1 0.0 2.0 43 61
+ 0.515098 0 1 tcp 552 ------- 1 0.0 2.0 44 62
- 0.515539 0 1 tcp 552 ------- 1 0.0 2.0 43 61
- 0.515981 0 1 tcp 552 ------- 1 0.0 2.0 44 62
r 0.516707 0 1 tcp 552 ------- 1 0.0 2.0 36 53
+ 0.516707 1 2 tcp 552 ------- 1 0.0 2.0 36 53
- 0.516707 1 2 tcp 552 ------- 1 0.0 2.0 36 53
r 0.517149 0 1 tcp 552 ------- 1 0.0 2.0 37 54
+ 0.517149 1 2 tcp 552 ------- 1 0.0 2.0 37 54
r 0.51759 0 1 tcp 552 ------- 1 0.0 2.0 38 55
+ 0.51759 1 2 tcp 552 ------- 1 0.0 2.0 38 55
r 0.518314 2 1 ack 40 ------- 1 2.0 0.0 34 56
+ 0.518314 1 0 ack 40 ------- 1 2.0 0.0 34 56
- 0.518314 1 0 ack 40 ------- 1 2.0 0.0 34 56
- 0.518915 1 2 tcp 552 ------- 1 0.0 2.0 37 54
r 0.519514 1 0 ack 40 ------- 1 2.0 0.0 30 51
+ 0.519514 0 1 tcp 552 ------- 1 0.0 2.0 45 63
- 0.519514 0 1 tcp 552 ------- 1 0.0 2.0 45 63
+ 0.519514 0 1 tcp 552 ------- 1 0.0 2.0 46 64
+ 0.519514 0 1 tcp 552 ------- 1 0.0 2.0 47 65
- 0.519955 0 1 tcp 552 ------- 1 0.0 2.0 46 64
- 0.520397 0 1 tcp 552 ------- 1 0.0 2.0 47 65
r 0.521123 0 1 tcp 552 ------- 1 0.0 2.0 39 57
+ 0.521123 1 2 tcp 552 ------- 1 0.0 2.0 39 57
- 0.521123 1 2 tcp 552 ------- 1 0.0 2.0 38 55
r 0.521565 0 1 tcp 552 ------- 1 0.0 2.0 40 58
+ 0.521565 1 2 tcp 552 ------- 1 0.0 2.0 40 58
r 0.522006 0 1 tcp 552 ------- 1 0.0 2.0 41 59
+ 0.522006 1 2 tcp 552 ------- 1 0.0 2.0 41 59
- 0.523331 1 2 tcp 552 ------- 1 0.0 2.0 39 57
r 0.52393 1 0 ack 40 ------- 1 2.0 0.0 32 52
+ 0.52393 0 1 tcp 552 ------- 1 0.0 2.0 48 66
- 0.52393 0 1 tcp 552 ------- 1 0.0 2.0 48 66
+ 0.52393 0 1 tcp 552 ------- 1 0.0 2.0 49 67
+ 0.52393 0 1 tcp 552 ------- 1 0.0 2.0 50 68
- 0.524371 0 1 tcp 552 ------- 1 0.0 2.0 49 67
- 0.524813 0 1 tcp 552 ------- 1 0.0 2.0 50 68
r 0.525539 0 1 tcp 552 ------- 1 0.0 2.0 42 60
+ 0.525539 1 2 tcp 552 ------- 1 0.0 2.0 42 60
- 0.525539 1 2 tcp 552 ------- 1 0.0 2.0 40 58
r 0.525981 0 1 tcp 552 ------- 1 0.0 2.0 43 61
+ 0.525981 1 2 tcp 552 ------- 1 0.0 2.0 43 61
r 0.526422 0 1 tcp 552 ------- 1 0.0 2.0 44 62
+ 0.526422 1 2 tcp 552 ------- 1 0.0 2.0 44 62
- 0.527747 1 2 tcp 552 ------- 1 0.0 2.0 41 59
r 0.528346 1 0 ack 40 ------- 1 2.0 0.0 34 56
+ 0.528346 0 1 tcp 552 ------- 1 0.0 2.0 51 69
- 0.528346 0 1 tcp 552 ------- 1 0.0 2.0 51 69
+ 0.528346 0 1 tcp 552 ------- 1 0.0 2.0 52 70
+ 0.528346 0 1 tcp 552 ------- 1 0.0 2.0 53 71
- 0.528787 0 1 tcp 552 ------- 1 0.0 2.0 52 70
r 0.528915 1 2 tcp 552 ------- 1 0.0 2.0 36 53
+ 0.528915 2 1 ack 40 ------- 1 2.0 0.0 36 72
- 0.528915 2 1 ack 40 ------- 1 2.0 0.0 36 72
- 0.529229 0 1 tcp 552 ------- 1 0.0 2.0 53 71
r 0.529955 0 1 tcp 552 ------- 1 0.0 2.0 45 63
+ 0.529955 1 2 tcp 552 ------- 1 0.0 2.0 45 63
- 0.529955 1 2 tcp 552 ------- 1 0.0 2.0 42 60
r 0.530397 0 1 tcp 552 ------- 1 0.0 2.0 46 64
+ 0.530397 1 2 tcp 552 ------- 1 0.0 2.0 46 64
r 0.530838 0 1 tcp 552 ------- 1 0.0 2.0 47 65
+ 0.530838 1 2 tcp 552 ------- 1 0.0 2.0 47 65
r 0.531123 1 2 tcp 552 ------- 1 0.0 2.0 37 54
- 0.532163 1 2 tcp 552 ------- 1 0.0 2.0 43 61
r 0.533331 1 2 tcp 552 ------- 1 0.0 2.0 38 55
+ 0.533331 2 1 ack 40 ------- 1 2.0 0.0 38 73
- 0.533331 2 1 ack 40 ------- 1 2.0 0.0 38 73
r 0.534371 0 1 tcp 552 ------- 1 0.0 2.0 48 66
+ 0.534371 1 2 tcp 552 ------- 1 0.0 2.0 48 66
- 0.534371 1 2 tcp 552 ------- 1 0.0 2.0 44 62
r 0.534813 0 1 tcp 552 ------- 1 0.0 2.0 49 67
+ 0.534813 1 2 tcp 552 ------- 1 0.0 2.0 49 67
r 0.535254 0 1 tcp 552 ------- 1 0.0 2.0 50 68
+ 0.535254 1 2 tcp 552 ------- 1 0.0 2.0 50 68
r 0.535539 1 2 tcp 552 ------- 1 0.0 2.0 39 57
- 0.536579 1 2 tcp 552 ------- 1 0.0 2.0 45 63
r 0.537747 1 2 tcp 552 ------- 1 0.0 2.0 40 58
+ 0.537747 2 1 ack 40 ------- 1 2.0 0.0 40 74
- 0.537747 2 1 ack 40 ------- 1 2.0 0.0 40 74
r 0.538787 0 1 tcp 552 ------- 1 0.0 2.0 51 69
+ 0.538787 1 2 tcp 552 ------- 1 0.0 2.0 51 69
- 0.538787 1 2 tcp 552 ------- 1 0.0 2.0 46 64
r 0.539075 2 1 ack 40 ------- 1 2.0 0.0 36 72
+ 0.539075 1 0 ack 40 ------- 1 2.0 0.0 36 72
- 0.539075 1 0 ack 40 ------- 1 2.0 0.0 36 72
r 0.539229 0 1 tcp 552 ------- 1 0.0 2.0 52 70
+ 0.539229 1 2 tcp 552 ------- 1 0.0 2.0 52 70
r 0.53967 0 1 tcp 552 ------- 1 0.0 2.0 53 71
+ 0.53967 1 2 tcp 552 ------- 1 0.0 2.0 53 71
r 0.539955 1 2 tcp 552 ------- 1 0.0 2.0 41 59
- 0.540995 1 2 tcp 552 ------- 1 0.0 2.0 47 65
r 0.542163 1 2 tcp 552 ------- 1 0.0 2.0 42 60
+ 0.542163 2 1 ack 40 ------- 1 2.0 0.0 42 75
- 0.542163 2 1 ack 40 ------- 1 2.0 0.0 42 75
- 0.543203 1 2 tcp 552 ------- 1 0.0 2.0 48 66
r 0.543491 2 1 ack 40 ------- 1 2.0 0.0 38 73
+ 0.543491 1 0 ack 40 ------- 1 2.0 0.0 38 73
- 0.543491 1 0 ack 40 ------- 1 2.0 0.0 38 73
r 0.544371 1 2 tcp 552 ------- 1 0.0 2.0 43 61
- 0.545411 1 2 tcp 552 ------- 1 0.0 2.0 49 67
r 0.546579 1 2 tcp 552 ------- 1 0.0 2.0 44 62
+ 0.546579 2 1 ack 40 ------- 1 2.0 0.0 44 76
- 0.546579 2 1 ack 40 ------- 1 2.0 0.0 44 76
- 0.547619 1 2 tcp 552 ------- 1 0.0 2.0 50 68
r 0.547907 2 1 ack 40 ------- 1 2.0 0.0 40 74
+ 0.547907 1 0 ack 40 ------- 1 2.0 0.0 40 74
- 0.547907 1 0 ack 40 ------- 1 2.0 0.0 40 74
r 0.548787 1 2 tcp 552 ------- 1 0.0 2.0 45 63
r 0.549107 1 0 ack 40 ------- 1 2.0 0.0 36 72
+ 0.549107 0 1 tcp 552 ------- 1 0.0 2.0 54 77
- 0.549107 0 1 tcp 552 ------- 1 0.0 2.0 54 77
+ 0.549107 0 1 tcp 552 ------- 1 0.0 2.0 55 78
+ 0.549107 0 1 tcp 552 ------- 1 0.0 2.0 56 79
- 0.549549 0 1 tcp 552 ------- 1 0.0 2.0 55 78
- 0.549827 1 2 tcp 552 ------- 1 0.0 2.0 51 69
- 0.54999 0 1 tcp 552 ------- 1 0.0 2.0 56 79
r 0.550995 1 2 tcp 552 ------- 1 0.0 2.0 46 64
+ 0.550995 2 1 ack 40 ------- 1 2.0 0.0 46 80
- 0.550995 2 1 ack 40 ------- 1 2.0 0.0 46 80
- 0.552035 1 2 tcp 552 ------- 1 0.0 2.0 52 70
r 0.552323 2 1 ack 40 ------- 1 2.0 0.0 42 75
+ 0.552323 1 0 ack 40 ------- 1 2.0 0.0 42 75
- 0.552323 1 0 ack 40 ------- 1 2.0 0.0 42 75
r 0.553203 1 2 tcp 552 ------- 1 0.0 2.0 47 65
r 0.553523 1 0 ack 40 ------- 1 2.0 0.0 38 73
+ 0.553523 0 1 tcp 552 ------- 1 0.0 2.0 57 81
- 0.553523 0 1 tcp 552 ------- 1 0.0 2.0 57 81
+ 0.553523 0 1 tcp 552 ------- 1 0.0 2.0 58 82
+ 0.553523 0 1 tcp 552 ------- 1 0.0 2.0 59 83
- 0.553965 0 1 tcp 552 ------- 1 0.0 2.0 58 82
- 0.554243 1 2 tcp 552 ------- 1 0.0 2.0 53 71
- 0.554406 0 1 tcp 552 ------- 1 0.0 2.0 59 83
r 0.555411 1 2 tcp 552 ------- 1 0.0 2.0 48 66
+ 0.555411 2 1 ack 40 ------- 1 2.0 0.0 48 84
- 0.555411 2 1 ack 40 ------- 1 2.0 0.0 48 84
r 0.556739 2 1 ack 40 ------- 1 2.0 0.0 44 76
+ 0.556739 1 0 ack 40 ------- 1 2.0 0.0 44 76
- 0.556739 1 0 ack 40 ------- 1 2.0 0.0 44 76
r 0.557619 1 2 tcp 552 ------- 1 0.0 2.0 49 67
r 0.557939 1 0 ack 40 ------- 1 2.0 0.0 40 74
+ 0.557939 0 1 tcp 552 ------- 1 0.0 2.0 60 85
- 0.557939 0 1 tcp 552 ------- 1 0.0 2.0 60 85
+ 0.557939 0 1 tcp 552 ------- 1 0.0 2.0 61 86
+ 0.557939 0 1 tcp 552 ------- 1 0.0 2.0 62 87
- 0.558381 0 1 tcp 552 ------- 1 0.0 2.0 61 86
- 0.558822 0 1 tcp 552 ------- 1 0.0 2.0 62 87
r 0.559549 0 1 tcp 552 ------- 1 0.0 2.0 54 77
+ 0.559549 1 2 tcp 552 ------- 1 0.0 2.0 54 77
- 0.559549 1 2 tcp 552 ------- 1 0.0 2.0 54 77
r 0.559827 1 2 tcp 552 ------- 1 0.0 2.0 50 68
+ 0.559827 2 1 ack 40 ------- 1 2.0 0.0 50 88
- 0.559827 2 1 ack 40 ------- 1 2.0 0.0 50 88
r 0.55999 0 1 tcp 552 ------- 1 0.0 2.0 55 78
+ 0.55999 1 2 tcp 552 ------- 1 0.0 2.0 55 78
r 0.560432 0 1 tcp 552 ------- 1 0.0 2.0 56 79
+ 0.560432 1 2 tcp 552 ------- 1 0.0 2.0 56 79
r 0.561155 2 1 ack 40 ------- 1 2.0 0.0 46 80
+ 0.561155 1 0 ack 40 ------- 1 2.0 0.0 46 80
- 0.561155 1 0 ack 40 ------- 1 2.0 0.0 46 80
- 0.561757 1 2 tcp 552 ------- 1 0.0 2.0 55 78
r 0.562035 1 2 tcp 552 ------- 1 0.0 2.0 51 69
r 0.562355 1 0 ack 40 ------- 1 2.0 0.0 42 75
+ 0.562355 0 1 tcp 552 ------- 1 0.0 2.0 63 89
- 0.562355 0 1 tcp 552 ------- 1 0.0 2.0 63 89
+ 0.562355 0 1 tcp 552 ------- 1 0.0 2.0 64 90
+ 0.562355 0 1 tcp 552 ------- 1 0.0 2.0 65 91
- 0.562797 0 1 tcp 552 ------- 1 0.0 2.0 64 90
- 0.563238 0 1 tcp 552 ------- 1 0.0 2.0 65 91
r 0.563965 0 1 tcp 552 ------- 1 0.0 2.0 57 81
+ 0.563965 1 2 tcp 552 ------- 1 0.0 2.0 57 81
- 0.563965 1 2 tcp 552 ------- 1 0.0 2.0 56 79
r 0.564243 1 2 tcp 552 ------- 1 0.0 2.0 52 70
+ 0.564243 2 1 ack 40 ------- 1 2.0 0.0 52 92
- 0.564243 2 1 ack 40 ------- 1 2.0 0.0 52 92
r 0.564406 0 1 tcp 552 ------- 1 0.0 2.0 58 82
+ 0.564406 1 2 tcp 552 ------- 1 0.0 2.0 58 82
r 0.564848 0 1 tcp 552 ------- 1 0.0 2.0 59 83
+ 0.564848 1 2 tcp 552 ------- 1 0.0 2.0 59 83
r 0.565571 2 1 ack 40 ------- 1 2.0 0.0 48 84
+ 0.565571 1 0 ack 40 ------- 1 2.0 0.0 48 84
- 0.565571 1 0 ack 40 ------- 1 2.0 0.0 48 84
- 0.566173 1 2 tcp 552 ------- 1 0.0 2.0 57 81
r 0.566451 1 2 tcp 552 ------- 1 0.0 2.0 53 71
r 0.566771 1 0 ack 40 ------- 1 2.0 0.0 44 76
+ 0.566771 0 1 tcp 552 ------- 1 0.0 2.0 66 93
- 0.566771 0 1 tcp 552 ------- 1 0.0 2.0 66 93
+ 0.566771 0 1 tcp 552 ------- 1 0.0 2.0 67 94
+ 0.566771 0 1 tcp 552 ------- 1 0.0 2.0 68 95
- 0.567213 0 1 tcp 552 ------- 1 0.0 2.0 67 94
- 0.567654 0 1 tcp 552 ------- 1 0.0 2.0 68 95
r 0.568381 0 1 tcp 552 ------- 1 0.0 2.0 60 85
+ 0.568381 1 2 tcp 552 ------- 1 0.0 2.0 60 85
- 0.568381 1 2 tcp 552 ------- 1 0.0 2.0 58 82
r 0.568822 0 1 tcp 552 ------- 1 0.0 2.0 61 86
+ 0.568822 1 2 tcp 552 ------- 1 0.0 2.0 61 86
r 0.569264 0 1 tcp 552 ------- 1 0.0 2.0 62 87
+ 0.569264 1 2 tcp 552 ------- 1 0.0 2.0 62 87
r 0.569987 2 1 ack 40 ------- 1 2.0 0.0 50 88
+ 0.569987 1 0 ack 40 ------- 1 2.0 0.0 50 88
- 0.569987 1 0 ack 40 ------- 1 2.0 0.0 50 88
- 0.570589 1 2 tcp 552 ------- 1 0.0 2.0 59 83
r 0.571187 1 0 ack 40 ------- 1 2.0 0.0 46 80
+ 0.571187 0 1 tcp 552 ------- 1 0.0 2.0 69 96
- 0.571187 0 1 tcp 552 ------- 1 0.0 2.0 69 96
+ 0.571187 0 1 tcp 552 ------- 1 0.0 2.0 70 97
+ 0.571187 0 1 tcp 552 ------- 1 0.0 2.0 71 98
- 0.571629 0 1 tcp 552 ------- 1 0.0 2.0 70 97
r 0.571757 1 2 tcp 552 ------- 1 0.0 2.0 54 77
+ 0.571757 2 1 ack 40 ------- 1 2.0 0.0 54 99
- 0.571757 2 1 ack 40 ------- 1 2.0 0.0 54 99
- 0.57207 0 1 tcp 552 ------- 1 0.0 2.0 71 98
r 0.572797 0 1 tcp 552 ------- 1 0.0 2.0 63 89
+ 0.572797 1 2 tcp 552 ------- 1 0.0 2.0 63 89
- 0.572797 1 2 tcp 552 ------- 1 0.0 2.0 60 85
r 0.573238 0 1 tcp 552 ------- 1 0.0 2.0 64 90
+ 0.573238 1 2 tcp 552 ------- 1 0.0 2.0 64 90
r 0.57368 0 1 tcp 552 ------- 1 0.0 2.0 65 91
+ 0.57368 1 2 tcp 552 ------- 1 0.0 2.0 65 91
r 0.573965 1 2 tcp 552 ------- 1 0.0 2.0 55 78
r 0.574403 2 1 ack 40 ------- 1 2.0 0.0 52 92
+ 0.574403 1 0 ack 40 ------- 1 2.0 0.0 52 92
- 0.574403 1 0 ack 40 ------- 1 2.0 0.0 52 92
- 0.575005 1 2 tcp 552 ------- 1 0.0 2.0 61 86
r 0.575603 1 0 ack 40 ------- 1 2.0 0.0 48 84
+ 0.575603 0 1 tcp 552 ------- 1 0.0 2.0 72 100
- 0.575603 0 1 tcp 552 ------- 1 0.0 2.0 72 100
+ 0.575603 0 1 tcp 552 ------- 1 0.0 2.0 73 101
+ 0.575603 0 1 tcp 552 ------- 1 0.0 2.0 74 102
- 0.576045 0 1 tcp 552 ------- 1 0.0 2.0 73 101
r 0.576173 1 2 tcp 552 ------- 1 0.0 2.0 56 79
+ 0.576173 2 1 ack 40 ------- 1 2.0 0.0 56 103
- 0.576173 2 1 ack 40 ------- 1 2.0 0.0 56 103
- 0.576486 0 1 tcp 552 ------- 1 0.0 2.0 74 102
r 0.577213 0 1 tcp 552 ------- 1 0.0 2.0 66 93
+ 0.577213 1 2 tcp 552 ------- 1 0.0 2.0 66 93
- 0.577213 1 2 tcp 552 ------- 1 0.0 2.0 62 87
r 0.577654 0 1 tcp 552 ------- 1 0.0 2.0 67 94
+ 0.577654 1 2 tcp 552 ------- 1 0.0 2.0 67 94
r 0.578096 0 1 tcp 552 ------- 1 0.0 2.0 68 95
+ 0.578096 1 2 tcp 552 ------- 1 0.0 2.0 68 95
r 0.578381 1 2 tcp 552 ------- 1 0.0 2.0 57 81
- 0.579421 1 2 tcp 552 ------- 1 0.0 2.0 63 89
r 0.580019 1 0 ack 40 ------- 1 2.0 0.0 50 88
+ 0.580019 0 1 tcp 552 ------- 1 0.0 2.0 75 104
- 0.580019 0 1 tcp 552 ------- 1 0.0 2.0 75 104
+ 0.580019 0 1 tcp 552 ------- 1 0.0 2.0 76 105
+ 0.580019 0 1 tcp 552 ------- 1 0.0 2.0 77 106
- 0.580461 0 1 tcp 552 ------- 1 0.0 2.0 76 105
r 0.580589 1 2 tcp 552 ------- 1 0.0 2.0 58 82
+ 0.580589 2 1 ack 40 ------- 1 2.0 0.0 58 107
- 0.580589 2 1 ack 40 ------- 1 2.0 0.0 58 107
- 0.580902 0 1 tcp 552 ------- 1 0.0 2.0 77 106
r 0.581629 0 1 tcp 552 ------- 1 0.0 2.0 69 96
+ 0.581629 1 2 tcp 552 ------- 1 0.0 2.0 69 96
- 0.581629 1 2 tcp 552 ------- 1 0.0 2.0 64 90
r 0.581917 2 1 ack 40 ------- 1 2.0 0.0 54 99
+ 0.581917 1 0 ack 40 ------- 1 2.0 0.0 54 99
- 0.581917 1 0 ack 40 ------- 1 2.0 0.0 54 99
r 0.58207 0 1 tcp 552 ------- 1 0.0 2.0 70 97
+ 0.58207 1 2 tcp 552 ------- 1 0.0 2.0 70 97
r 0.582512 0 1 tcp 552 ------- 1 0.0 2.0 71 98
+ 0.582512 1 2 tcp 552 ------- 1 0.0 2.0 71 98
r 0.582797 1 2 tcp 552 ------- 1 0.0 2.0 59 83
- 0.583837 1 2 tcp 552 ------- 1 0.0 2.0 65 91
r 0.584435 1 0 ack 40 ------- 1 2.0 0.0 52 92
+ 0.584435 0 1 tcp 552 ------- 1 0.0 2.0 78 108
- 0.584435 0 1 tcp 552 ------- 1 0.0 2.0 78 108
+ 0.584435 0 1 tcp 552 ------- 1 0.0 2.0 79 109
+ 0.584435 0 1 tcp 552 ------- 1 0.0 2.0 80 110
- 0.584877 0 1 tcp 552 ------- 1 0.0 2.0 79 109
r 0.585005 1 2 tcp 552 ------- 1 0.0 2.0 60 85
+ 0.585005 2 1 ack 40 ------- 1 2.0 0.0 60 111
- 0.585005 2 1 ack 40 ------- 1 2.0 0.0 60 111
- 0.585318 0 1 tcp 552 ------- 1 0.0 2.0 80 110
r 0.586045 0 1 tcp 552 ------- 1 0.0 2.0 72 100
+ 0.586045 1 2 tcp 552 ------- 1 0.0 2.0 72 100
- 0.586045 1 2 tcp 552 ------- 1 0.0 2.0 66 93
r 0.586333 2 1 ack 40 ------- 1 2.0 0.0 56 103
+ 0.586333 1 0 ack 40 ------- 1 2.0 0.0 56 103
- 0.586333 1 0 ack 40 ------- 1 2.0 0.0 56 103
r 0.586486 0 1 tcp 552 ------- 1 0.0 2.0 73 101
+ 0.586486 1 2 tcp 552 ------- 1 0.0 2.0 73 101
r 0.586928 0 1 tcp 552 ------- 1 0.0 2.0 74 102
+ 0.586928 1 2 tcp 552 ------- 1 0.0 2.0 74 102
r 0.587213 1 2 tcp 552 ------- 1 0.0 2.0 61 86
- 0.588253 1 2 tcp 552 ------- 1 0.0 2.0 67 94
r 0.589421 1 2 tcp 552 ------- 1 0.0 2.0 62 87
+ 0.589421 2 1 ack 40 ------- 1 2.0 0.0 62 112
- 0.589421 2 1 ack 40 ------- 1 2.0 0.0 62 112
r 0.590461 0 1 tcp 552 ------- 1 0.0 2.0 75 104
+ 0.590461 1 2 tcp 552 ------- 1 0.0 2.0 75 104
- 0.590461 1 2 tcp 552 ------- 1 0.0 2.0 68 95
r 0.590749 2 1 ack 40 ------- 1 2.0 0.0 58 107
+ 0.590749 1 0 ack 40 ------- 1 2.0 0.0 58 107
- 0.590749 1 0 ack 40 ------- 1 2.0 0.0 58 107
r 0.590902 0 1 tcp 552 ------- 1 0.0 2.0 76 105
+ 0.590902 1 2 tcp 552 ------- 1 0.0 2.0 76 105
r 0.591344 0 1 tcp 552 ------- 1 0.0 2.0 77 106
+ 0.591344 1 2 tcp 552 ------- 1 0.0 2.0 77 106
r 0.591629 1 2 tcp 552 ------- 1 0.0 2.0 63 89
r 0.591949 1 0 ack 40 ------- 1 2.0 0.0 54 99
+ 0.591949 0 1 tcp 552 ------- 1 0.0 2.0 81 113
- 0.591949 0 1 tcp 552 ------- 1 0.0 2.0 81 113
+ 0.591949 0 1 tcp 552 ------- 1 0.0 2.0 82 114
+ 0.591949 0 1 tcp 552 ------- 1 0.0 2.0 83 115
- 0.59239 0 1 tcp 552 ------- 1 0.0 2.0 82 114
- 0.592669 1 2 tcp 552 ------- 1 0.0 2.0 69 96
- 0.592832 0 1 tcp 552 ------- 1 0.0 2.0 83 115
r 0.593837 1 2 tcp 552 ------- 1 0.0 2.0 64 90
+ 0.593837 2 1 ack 40 ------- 1 2.0 0.0 64 116
- 0.593837 2 1 ack 40 ------- 1 2.0 0.0 64 116
r 0.594877 0 1 tcp 552 ------- 1 0.0 2.0 78 108
+ 0.594877 1 2 tcp 552 ------- 1 0.0 2.0 78 108