V -t * -v 1.0a5 -a 0
A -t * -n 1 -p 0 -o 0x7fffffff -c 30 -a 1
A -t * -h 1 -m 1073741823 -s 0
c -t * -i 1 -n Blue
c -t * -i 2 -n Red
n -t * -a 0 -s 0 -S UP -v circle -c black -i black
n -t * -a 1 -s 1 -S UP -v circle -c black -i black
n -t * -a 2 -s 2 -S UP -v circle -c black -i black
l -t * -s 0 -d 1 -S UP -r 10000000 -D 0.01 -c black -o left
l -t * -s 1 -d 2 -S UP -r 2000000 -D 0.01 -c black -o left
+ -t 0.1 -s 0 -d 1 -p tcp -e 40 -c 1 -i 0 -a 1 -x {0.0 2.0 0 ------- null}
- -t 0.1 -s 0 -d 1 -p tcp -e 40 -c 1 -i 0 -a 1 -x {0.0 2.0 0 ------- null}
h -t 0.1 -s 0 -d 1 -p tcp -e 40 -c 1 -i 0 -a 1 -x {0.0 2.0 -1 ------- null}
r -t 0.110032 -s 0 -d 1 -p tcp -e 40 -c 1 -i 0 -a 1 -x {0.0 2.0 0 ------- null}
+ -t 0.110032 -s 1 -d 2 -p tcp -e 40 -c 1 -i 0 -a 1 -x {0.0 2.0 0 ------- null}
- -t 0.110032 -s 1 -d 2 -p tcp -e 40 -c 1 -i 0 -a 1 -x {0.0 2.0 0 ------- null}
h -t 0.110032 -s 1 -d 2 -p tcp -e 40 -c 1 -i 0 -a 1 -x {0.0 2.0 -1 ------- null}
r -t 0.120192 -s 1 -d 2 -p tcp -e 40 -c 1 -i 0 -a 1 -x {0.0 2.0 0 ------- null}
+ -t 0.120192 -s 2 -d 1 -p ack -e 40 -c 1 -i 1 -a 1 -x {2.0 0.0 0 ------- null}
- -t 0.120192 -s 2 -d 1 -p ack -e 40 -c 1 -i 1 -a 1 -x {2.0 0.0 0 ------- null}
h -t 0.120192 -s 2 -d 1 -p ack -e 40 -c 1 -i 1 -a 1 -x {2.0 0.0 -1 ------- null}
r -t 0.130352 -s 2 -d 1 -p ack -e 40 -c 1 -i 1 -a 1 -x {2.0 0.0 0 ------- null}
+ -t 0.130352 -s 1 -d 0 -p ack -e 40 -c 1 -i 1 -a 1 -x {2.0 0.0 0 ------- null}
- -t 0.130352 -s 1 -d 0 -p ack -e 40 -c 1 -i 1 -a 1 -x {2.0 0.0 0 ------- null}
h -t 0.130352 -s 1 -d 0 -p ack -e 40 -c 1 -i 1 -a 1 -x {2.0 0.0 -1 ------- null}
r -t 0.140384 -s 1 -d 0 -p ack -e 40 -c 1 -i 1 -a 1 -x {2.0 0.0 0 ------- null}
+ -t 0.140384 -s 0 -d 1 -p tcp -e 592 -c 1 -i 2 -a 1 -x {0.0 2.0 1 ------- null}
- -t 0.140384 -s 0 -d 1 -p tcp -e 592 -c 1 -i 2 -a 1 -x {0.0 2.0 1 ------- null}
h -t 0.140384 -s 0 -d 1 -p tcp -e 592 -c 1 -i 2 -a 1 -x {0.0 2.0 -1 ------- null}
+ -t 0.140384 -s 0 -d 1 -p tcp -e 592 -c 1 -i 3 -a 1 -x {0.0 2.0 2 ------- null}
- -t 0.1408576 -s 0 -d 1 -p tcp -e 592 -c 1 -i 3 -a 1 -x {0.0 2.0 2 ------- null}
h -t 0.1408576 -s 0 -d 1 -p tcp -e 592 -c 1 -i 3 -a 1 -x {0.0 2.0 -1 ------- null}
r -t 0.1508576 -s 0 -d 1 -p tcp -e 592 -c 1 -i 2 -a 1 -x {0.0 2.0 1 ------- null}
+ -t 0.1508576 -s 1 -d 2 -p tcp -e 592 -c 1 -i 2 -a 1 -x {0.0 2.0 1 ------- null}
- -t 0.1508576 -s 1 -d 2 -p tcp -e 592 -c 1 -i 2 -a 1 -x {0.0 2.0 1 ------- null}
h -t 0.1508576 -s 1 -d 2 -p tcp -e 592 -c 1 -i 2 -a 1 -x {0.0 2.0 -1 ------- null}
r -t 0.1513312 -s 0 -d 1 -p tcp -e 592 -c 1 -i 3 -a 1 -x {0.0 2.0 2 ------- null}
+ -t 0.1513312 -s 1 -d 2 -p tcp -e 592 -c 1 -i 3 -a 1 -x {0.0 2.0 2 ------- null}
- -t 0.1532256 -s 1 -d 2 -p tcp -e 592 -c 1 -i 3 -a 1 -x {0.0 2.0 2 ------- null}
h -t 0.1532256 -s 1 -d 2 -p tcp -e 592 -c 1 -i 3 -a 1 -x {0.0 2.0 -1 ------- null}
r -t 0.1632256 -s 1 -d 2 -p tcp -e 592 -c 1 -i 2 -a 1 -x {0.0 2.0 1 ------- null}
r -t 0.1655936 -s 1 -d 2 -p tcp -e 592 -c 1 -i 3 -a 1 -x {0.0 2.0 2 ------- null}
+ -t 0.1655936 -s 2 -d 1 -p ack -e 40 -c 1 -i 4 -a 1 -x {2.0 0.0 2 ------- null}
- -t 0.1655936 -s 2 -d 1 -p ack -e 40 -c 1 -i 4 -a 1 -x {2.0 0.0 2 ------- null}
h -t 0.1655936 -s 2 -d 1 -p ack -e 40 -c 1 -i 4 -a 1 -x {2.0 0.0 -1 ------- null}
r -t 0.1757536 -s 2 -d 1 -p ack -e 40 -c 1 -i 4 -a 1 -x {2.0 0.0 2 ------- null}
+ -t 0.1757536 -s 1 -d 0 -p ack -e 40 -c 1 -i 4 -a 1 -x {2.0 0.0 2 ------- null}
- -t 0.1757536 -s 1 -d 0 -p ack -e 40 -c 1 -i 4 -a 1 -x {2.0 0.0 2 ------- null}
h -t 0.1757536 -s 1 -d 0 -p ack -e 40 -c 1 -i 4 -a 1 -x {2.0 0.0 -1 ------- null}
r -t 0.1857856 -s 1 -d 0 -p ack -e 40 -c 1 -i 4 -a 1 -x {2.0 0.0 2 ------- null}
+ -t 0.1857856 -s 0 -d 1 -p tcp -e 592 -c 1 -i 5 -a 1 -x {0.0 2.0 3 ------- null}
- -t 0.1857856 -s 0 -d 1 -p tcp -e 592 -c 1 -i 5 -a 1 -x {0.0 2.0 3 ------- null}
h -t 0.1857856 -s 0 -d 1 -p tcp -e 592 -c 1 -i 5 -a 1 -x {0.0 2.0 -1 ------- null}
+ -t 0.1857856 -s 0 -d 1 -p tcp -e 592 -c 1 -i 6 -a 1 -x {0.0 2.0 4 ------- null}
+ -t 0.1857856 -s 0 -d 1 -p tcp -e 592 -c 1 -i 7 -a 1 -x {0.0 2.0 5 ------- null}
- -t 0.1862592 -s 0 -d 1 -p tcp -e 592 -c 1 -i 6 -a 1 -x {0.0 2.0 4 ------- null}
h -t 0.1862592 -s 0 -d 1 -p tcp -e 592 -c 1 -i 6 -a 1 -x {0.0 2.0 -1 ------- null}
- -t 0.1867328 -s 0 -d 1 -p tcp -e 592 -c 1 -i 7 -a 1 -x {0.0 2.0 5 ------- null}
h -t 0.1867328 -s 0 -d 1 -p tcp -e 592 -c 1 -i 7 -a 1 -x {0.0 2.0 -1 ------- null}
r -t 0.1962592 -s 0 -d 1 -p tcp -e 592 -c 1 -i 5 -a 1 -x {0.0 2.0 3 ------- null}
+ -t 0.1962592 -s 1 -d 2 -p tcp -e 592 -c 1 -i 5 -a 1 -x {0.0 2.0 3 ------- null}
- -t 0.1962592 -s 1 -d 2 -p tcp -e 592 -c 1 -i 5 -a 1 -x {0.0 2.0 3 ------- null}
h -t 0.1962592 -s 1 -d 2 -p tcp -e 592 -c 1 -i 5 -a 1 -x {0.0 2.0 -1 ------- null}
r -t 0.1967328 -s 0 -d 1 -p tcp -e 592 -c 1 -i 6 -a 1 -x {0.0 2.0 4 ------- null}
+ -t 0.1967328 -s 1 -d 2 -p tcp -e 592 -c 1 -i 6 -a 1 -x {0.0 2.0 4 ------- null}
r -t 0.1972064 -s 0 -d 1 -p tcp -e 592 -c 1 -i 7 -a 1 -x {0.0 2.0 5 ------- null}
+ -t 0.1972064 -s 1 -d 2 -p tcp -e 592 -c 1 -i 7 -a 1 -x {0.0 2.0 5 ------- null}
- -t 0.1986272 -s 1 -d 2 -p tcp -e 592 -c 1 -i 6 -a 1 -x {0.0 2.0 4 ------- null}
h -t 0.1986272 -s 1 -d 2 -p tcp -e 592 -c 1 -i 6 -a 1 -x {0.0 2.0 -1 ------- null}
- -t 0.2009952 -s 1 -d 2 -p tcp -e 592 -c 1 -i 7 -a 1 -x {0.0 2.0 5 ------- null}
h -t 0.2009952 -s 1 -d 2 -p tcp -e 592 -c 1 -i 7 -a 1 -x {0.0 2.0 -1 ------- null}
r -t 0.2086272 -s 1 -d 2 -p tcp -e 592 -c 1 -i 5 -a 1 -x {0.0 2.0 3 ------- null}
r -t 0.2109952 -s 1 -d 2 -p tcp -e 592 -c 1 -i 6 -a 1 -x {0.0 2.0 4 ------- null}
+ -t 0.2109952 -s 2 -d 1 -p ack -e 40 -c 1 -i 8 -a 1 -x {2.0 0.0 4 ------- null}
- -t 0.2109952 -s 2 -d 1 -p ack -e 40 -c 1 -i 8 -a 1 -x {2.0 0.0 4 ------- null}
h -t 0.2109952 -s 2 -d 1 -p ack -e 40 -c 1 -i 8 -a 1 -x {2.0 0.0 -1 ------- null}
r -t 0.2133632 -s 1 -d 2 -p tcp -e 592 -c 1 -i 7 -a 1 -x {0.0 2.0 5 ------- null}
r -t 0.2211552 -s 2 -d 1 -p ack -e 40 -c 1 -i 8 -a 1 -x {2.0 0.0 4 ------- null}
+ -t 0.2211552 -s 1 -d 0 -p ack -e 40 -c 1 -i 8 -a 1 -x {2.0 0.0 4 ------- null}
- -t 0.2211552 -s 1 -d 0 -p ack -e 40 -c 1 -i 8 -a 1 -x {2.0 0.0 4 ------- null}
h -t 0.2211552 -s 1 -d 0 -p ack -e 40 -c 1 -i 8 -a 1 -x {2.0 0.0 -1 ------- null}
r -t 0.2311872 -s 1 -d 0 -p ack -e 40 -c 1 -i 8 -a 1 -x {2.0 0.0 4 ------- null}
+ -t 0.2311872 -s 0 -d 1 -p tcp -e 592 -c 1 -i 9 -a 1 -x {0.0 2.0 6 ------- null}
- -t 0.2311872 -s 0 -d 1 -p tcp -e 592 -c 1 -i 9 -a 1 -x {0.0 2.0 6 ------- null}
h -t 0.2311872 -s 0 -d 1 -p tcp -e 592 -c 1 -i 9 -a 1 -x {0.0 2.0 -1 ------- null}
+ -t 0.2311872 -s 0 -d 1 -p tcp -e 592 -c 1 -i 10 -a 1 -x {0.0 2.0 7 ------- null}
+ -t 0.2311872 -s 0 -d 1 -p tcp -e 592 -c 1 -i 11 -a 1 -x {0.0 2.0 8 ------- null}
- -t 0.2316608 -s 0 -d 1 -p tcp -e 592 -c 1 -i 10 -a 1 -x {0.0 2.0 7 ------- null}
h -t 0.2316608 -s 0 -d 1 -p tcp -e 592 -c 1 -i 10 -a 1 -x {0.0 2.0 -1 ------- null}
- -t 0.2321344 -s 0 -d 1 -p tcp -e 592 -c 1 -i 11 -a 1 -x {0.0 2.0 8 ------- null}
h -t 0.2321344 -s 0 -d 1 -p tcp -e 592 -c 1 -i 11 -a 1 -x {0.0 2.0 -1 ------- null}
r -t 0.2416608 -s 0 -d 1 -p tcp -e 592 -c 1 -i 9 -a 1 -x {0.0 2.0 6 ------- null}
+ -t 0.2416608 -s 1 -d 2 -p tcp -e 592 -c 1 -i 9 -a 1 -x {0.0 2.0 6 ------- null}
- -t 0.2416608 -s 1 -d 2 -p tcp -e 592 -c 1 -i 9 -a 1 -x {0.0 2.0 6 ------- null}
h -t 0.2416608 -s 1 -d 2 -p tcp -e 592 -c 1 -i 9 -a 1 -x {0.0 2.0 -1 ------- null}
r -t 0.2421344 -s 0 -d 1 -p tcp -e 592 -c 1 -i 10 -a 1 -x {0.0 2.0 7 ------- null}
+ -t 0.2421344 -s 1 -d 2 -p tcp -e 592 -c 1 -i 10 -a 1 -x {0.0 2.0 7 ------- null}
r -t 0.242608 -s 0 -d 1 -p tcp -e 592 -c 1 -i 11 -a 1 -x {0.0 2.0 8 ------- null}
+ -t 0.242608 -s 1 -d 2 -p tcp -e 592 -c 1 -i 11 -a 1 -x {0.0 2.0 8 ------- null}
- -t 0.2440288 -s 1 -d 2 -p tcp -e 592 -c 1 -i 10 -a 1 -x {0.0 2.0 7 ------- null}
h -t 0.2440288 -s 1 -d 2 -p tcp -e 592 -c 1 -i 10 -a 1 -x {0.0 2.0 -1 ------- null}
- -t 0.2463968 -s 1 -d 2 -p tcp -e 592 -c 1 -i 11 -a 1 -x {0.0 2.0 8 ------- null}
h -t 0.2463968 -s 1 -d 2 -p tcp -e 592 -c 1 -i 11 -a 1 -x {0.0 2.0 -1 ------- null}
r -t 0.2540288 -s 1 -d 2 -p tcp -e 592 -c 1 -i 9 -a 1 -x {0.0 2.0 6 ------- null}
+ -t 0.2540288 -s 2 -d 1 -p ack -e 40 -c 1 -i 12 -a 1 -x {2.0 0.0 6 ------- null}
- -t 0.2540288 -s 2 -d 1 -p ack -e 40 -c 1 -i 12 -a 1 -x {2.0 0.0 6 ------- null}
h -t 0.2540288 -s 2 -d 1 -p ack -e 40 -c 1 -i 12 -a 1 -x {2.0 0.0 -1 ------- null}
r -t 0.2563968 -s 1 -d 2 -p tcp -e 592 -c 1 -i 10 -a 1 -x {0.0 2.0 7 ------- null}
r -t 0.2587648 -s 1 -d 2 -p tcp -e 592 -c 1 -i 11 -a 1 -x {0.0 2.0 8 ------- null}
+ -t 0.2587648 -s 2 -d 1 -p ack -e 40 -c 1 -i 13 -a 1 -x {2.0 0.0 8 ------- null}
- -t 0.2587648 -s 2 -d 1 -p ack -e 40 -c 1 -i 13 -a 1 -x {2.0 0.0 8 ------- null}
h -t 0.2587648 -s 2 -d 1 -p ack -e 40 -c 1 -i 13 -a 1 -x {2.0 0.0 -1 ------- null}
r -t 0.2641888 -s 2 -d 1 -p ack -e 40 -c 1 -i 12 -a 1 -x {2.0 0.0 6 ------- null}
+ -t 0.2641888 -s 1 -d 0 -p ack -e 40 -c 1 -i 12 -a 1 -x {2.0 0.0 6 ------- null}
- -t 0.2641888 -s 1 -d 0 -p ack -e 40 -c 1 -i 12 -a 1 -x {2.0 0.0 6 ------- null}
h -t 0.2641888 -s 1 -d 0 -p ack -e 40 -c 1 -i 12 -a 1 -x {2.0 0.0 -1 ------- null}
r -t 0.2689248 -s 2 -d 1 -p ack -e 40 -c 1 -i 13 -a 1 -x {2.0 0.0 8 ------- null}
+ -t 0.2689248 -s 1 -d 0 -p ack -e 40 -c 1 -i 13 -a 1 -x {2.0 0.0 8 ------- null}
- -t 0.2689248 -s 1 -d 0 -p ack -e 40 -c 1 -i 13 -a 1 -x {2.0 0.0 8 ------- null}
h -t 0.2689248 -s 1 -d 0 -p ack -e 40 -c 1 -i 13 -a 1 -x {2.0 0.0 -1 ------- null}
r -t 0.2742208 -s 1 -d 0 -p ack -e 40 -c 1 -i 12 -a 1 -x {2.0 0.0 6 ------- null}
+ -t 0.2742208 -s 0 -d 1 -p tcp -e 592 -c 1 -i 14 -a 1 -x {0.0 2.0 9 ------- null}
- -t 0.2742208 -s 0 -d 1 -p tcp -e 592 -c 1 -i 14 -a 1 -x {0.0 2.0 9 ------- null}
h -t 0.2742208 -s 0 -d 1 -p tcp -e 592 -c 1 -i 14 -a 1 -x {0.0 2.0 -1 ------- null}
+ -t 0.2742208 -s 0 -d 1 -p tcp -e 592 -c 1 -i 15 -a 1 -x {0.0 2.0 10 ------- null}
+ -t 0.2742208 -s 0 -d 1 -p tcp -e 592 -c 1 -i 16 -a 1 -x {0.0 2.0 11 ------- null}
- -t 0.2746944 -s 0 -d 1 -p tcp -e 592 -c 1 -i 15 -a 1 -x {0.0 2.0 10 ------- null}
h -t 0.2746944 -s 0 -d 1 -p tcp -e 592 -c 1 -i 15 -a 1 -x {0.0 2.0 -1 ------- null}
- -t 0.275168 -s 0 -d 1 -p tcp -e 592 -c 1 -i 16 -a 1 -x {0.0 2.0 11 ------- null}
h -t 0.275168 -s 0 -d 1 -p tcp -e 592 -c 1 -i 16 -a 1 -x {0.0 2.0 -1 ------- null}
r -t 0.2789568 -s 1 -d 0 -p ack -e 40 -c 1 -i 13 -a 1 -x {2.0 0.0 8 ------- null}
+ -t 0.2789568 -s 0 -d 1 -p tcp -e 592 -c 1 -i 17 -a 1 -x {0.0 2.0 12 ------- null}
- -t 0.2789568 -s 0 -d 1 -p tcp -e 592 -c 1 -i 17 -a 1 -x {0.0 2.0 12 ------- null}
h -t 0.2789568 -s 0 -d 1 -p tcp -e 592 -c 1 -i 17 -a 1 -x {0.0 2.0 -1 ------- null}
+ -t 0.2789568 -s 0 -d 1 -p tcp -e 592 -c 1 -i 18 -a 1 -x {0.0 2.0 13 ------- null}
+ -t 0.2789568 -s 0 -d 1 -p tcp -e 592 -c 1 -i 19 -a 1 -x {0.0 2.0 14 ------- null}
- -t 0.2794304 -s 0 -d 1 -p tcp -e 592 -c 1 -i 18 -a 1 -x {0.0 2.0 13 ------- null}
h -t 0.2794304 -s 0 -d 1 -p tcp -e 592 -c 1 -i 18 -a 1 -x {0.0 2.0 -1 ------- null}
- -t 0.279904 -s 0 -d 1 -p tcp -e 592 -c 1 -i 19 -a 1 -x {0.0 2.0 14 ------- null}
h -t 0.279904 -s 0 -d 1 -p tcp -e 592 -c 1 -i 19 -a 1 -x {0.0 2.0 -1 ------- null}
r -t 0.2846944 -s 0 -d 1 -p tcp -e 592 -c 1 -i 14 -a 1 -x {0.0 2.0 9 ------- null}
+ -t 0.2846944 -s 1 -d 2 -p tcp -e 592 -c 1 -i 14 -a 1 -x {0.0 2.0 9 ------- null}
- -t 0.2846944 -s 1 -d 2 -p tcp -e 592 -c 1 -i 14 -a 1 -x {0.0 2.0 9 ------- null}
h -t 0.2846944 -s 1 -d 2 -p tcp -e 592 -c 1 -i 14 -a 1 -x {0.0 2.0 -1 ------- null}
r -t 0.285168 -s 0 -d 1 -p tcp -e 592 -c 1 -i 15 -a 1 -x {0.0 2.0 10 ------- null}
+ -t 0.285168 -s 1 -d 2 -p tcp -e 592 -c 1 -i 15 -a 1 -x {0.0 2.0 10 ------- null}
r -t 0.2856416 -s 0 -d 1 -p tcp -e 592 -c 1 -i 16 -a 1 -x {0.0 2.0 11 ------- null}
+ -t 0.2856416 -s 1 -d 2 -p tcp -e 592 -c 1 -i 16 -a 1 -x {0.0 2.0 11 ------- null}
- -t 0.2870624 -s 1 -d 2 -p tcp -e 592 -c 1 -i 15 -a 1 -x {0.0 2.0 10 ------- null}
h -t 0.2870624 -s 1 -d 2 -p tcp -e 592 -c 1 -i 15 -a 1 -x {0.0 2.0 -1 ------- null}
- -t 0.2894304 -s 1 -d 2 -p tcp -e 592 -c 1 -i 16 -a 1 -x {0.0 2.0 11 ------- null}
h -t 0.2894304 -s 1 -d 2 -p tcp -e 592 -c 1 -i 16 -a 1 -x {0.0 2.0 -1 ------- null}
r -t 0.2894304 -s 0 -d 1 -p tcp -e 592 -c 1 -i 17 -a 1 -x {0.0 2.0 12 ------- null}
+ -t 0.2894304 -s 1 -d 2 -p tcp -e 592 -c 1 -i 17 -a 1 -x {0.0 2.0 12 ------- null}
r -t 0.289904 -s 0 -d 1 -p tcp -e 592 -c 1 -i 18 -a 1 -x {0.0 2.0 13 ------- null}
+ -t 0.289904 -s 1 -d 2 -p tcp -e 592 -c 1 -i 18 -a 1 -x {0.0 2.0 13 ------- null}
r -t 0.2903776 -s 0 -d 1 -p tcp -e 592 -c 1 -i 19 -a 1 -x {0.0 2.0 14 ------- null}
+ -t 0.2903776 -s 1 -d 2 -p tcp -e 592 -c 1 -i 19 -a 1 -x {0.0 2.0 14 ------- null}
- -t 0.2917984 -s 1 -d 2 -p tcp -e 592 -c 1 -i 17 -a 1 -x {0.0 2.0 12 ------- null}
h -t 0.2917984 -s 1 -d 2 -p tcp -e 592 -c 1 -i 17 -a 1 -x {0.0 2.0 -1 ------- null}
- -t 0.2941664 -s 1 -d 2 -p tcp -e 592 -c 1 -i 18 -a 1 -x {0.0 2.0 13 ------- null}
h -t 0.2941664 -s 1 -d 2 -p tcp -e 592 -c 1 -i 18 -a 1 -x {0.0 2.0 -1 ------- null}
- -t 0.2965344 -s 1 -d 2 -p tcp -e 592 -c 1 -i 19 -a 1 -x {0.0 2.0 14 ------- null}
h -t 0.2965344 -s 1 -d 2 -p tcp -e 592 -c 1 -i 19 -a 1 -x {0.0 2.0 -1 ------- null}
r -t 0.2970624 -s 1 -d 2 -p tcp -e 592 -c 1 -i 14 -a 1 -x {0.0 2.0 9 ------- null}
r -t 0.2994304 -s 1 -d 2 -p tcp -e 592 -c 1 -i 15 -a 1 -x {0.0 2.0 10 ------- null}
+ -t 0.2994304 -s 2 -d 1 -p ack -e 40 -c 1 -i 20 -a 1 -x {2.0 0.0 10 ------- null}
- -t 0.2994304 -s 2 -d 1 -p ack -e 40 -c 1 -i 20 -a 1 -x {2.0 0.0 10 ------- null}
h -t 0.2994304 -s 2 -d 1 -p ack -e 40 -c 1 -i 20 -a 1 -x {2.0 0.0 -1 ------- null}
r -t 0.3017984 -s 1 -d 2 -p tcp -e 592 -c 1 -i 16 -a 1 -x {0.0 2.0 11 ------- null}
r -t 0.3041664 -s 1 -d 2 -p tcp -e 592 -c 1 -i 17 -a 1 -x {0.0 2.0 12 ------- null}
+ -t 0.3041664 -s 2 -d 1 -p ack -e 40 -c 1 -i 21 -a 1 -x {2.0 0.0 12 ------- null}
- -t 0.3041664 -s 2 -d 1 -p ack -e 40 -c 1 -i 21 -a 1 -x {2.0 0.0 12 ------- null}
h -t 0.3041664 -s 2 -d 1 -p ack -e 40 -c 1 -i 21 -a 1 -x {2.0 0.0 -1 ------- null}
r -t 0.3065344 -s 1 -d 2 -p tcp -e 592 -c 1 -i 18 -a 1 -x {0.0 2.0 13 ------- null}
r -t 0.3089024 -s 1 -d 2 -p tcp -e 592 -c 1 -i 19 -a 1 -x {0.0 2.0 14 ------- null}
+ -t 0.3089024 -s 2 -d 1 -p ack -e 40 -c 1 -i 22 -a 1 -x {2.0 0.0 14 ------- null}
- -t 0.3089024 -s 2 -d 1 -p ack -e 40 -c 1 -i 22 -a 1 -x {2.0 0.0 14 ------- null}
h -t 0.3089024 -s 2 -d 1 -p ack -e 40 -c 1 -i 22 -a 1 -x {2.0 0.0 -1 ------- null}
r -t 0.3095904 -s 2 -d 1 -p ack -e 40 -c 1 -i 20 -a 1 -x {2.0 0.0 10 ------- null}
+ -t 0.3095904 -s 1 -d 0 -p ack -e 40 -c 1 -i 20 -a 1 -x {2.0 0.0 10 ------- null}
- -t 0.3095904 -s 1 -d 0 -p ack -e 40 -c 1 -i 20 -a 1 -x {2.0 0.0 10 ------- null}
h -t 0.3095904 -s 1 -d 0 -p ack -e 40 -c 1 -i 20 -a 1 -x {2.0 0.0 -1 ------- null}
r -t 0.3143264 -s 2 -d 1 -p ack -e 40 -c 1 -i 21 -a 1 -x {2.0 0.0 12 ------- null}
+ -t 0.3143264 -s 1 -d 0 -p ack -e 40 -c 1 -i 21 -a 1 -x {2.0 0.0 12 ------- null}
- -t 0.3143264 -s 1 -d 0 -p ack -e 40 -c 1 -i 21 -a 1 -x {2.0 0.0 12 ------- null}
h -t 0.3143264 -s 1 -d 0 -p ack -e 40 -c 1 -i 21 -a 1 -x {2.0 0.0 -1 ------- null}
r -t 0.3190624 -s 2 -d 1 -p ack -e 40 -c 1 -i 22 -a 1 -x {2.0 0.0 14 ------- null}
+ -t 0.3190624 -s 1 -d 0 -p ack -e 40 -c 1 -i 22 -a 1 -x {2.0 0.0 14 ------- null}
- -t 0.3190624 -s 1 -d 0 -p ack -e 40 -c 1 -i 22 -a 1 -x {2.0 0.0 14 ------- null}
h -t 0.3190624 -s 1 -d 0 -p ack -e 40 -c 1 -i 22 -a 1 -x {2.0 0.0 -1 ------- null}
r -t 0.3196224 -s 1 -d 0 -p ack -e 40 -c 1 -i 20 -a 1 -x {2.0 0.0 10 ------- null}
+ -t 0.3196224 -s 0 -d 1 -p tcp -e 592 -c 1 -i 23 -a 1 -x {0.0 2.0 15 ------- null}
- -t 0.3196224 -s 0 -d 1 -p tcp -e 592 -c 1 -i 23 -a 1 -x {0.0 2.0 15 ------- null}
h -t 0.3196224 -s 0 -d 1 -p tcp -e 592 -c 1 -i 23 -a 1 -x {0.0 2.0 -1 ------- null}
+ -t 0.3196224 -s 0 -d 1 -p tcp -e 592 -c 1 -i 24 -a 1 -x {0.0 2.0 16 ------- null}
+ -t 0.3196224 -s 0 -d 1 -p tcp -e 592 -c 1 -i 25 -a 1 -x {0.0 2.0 17 ------- null}
- -t 0.320096 -s 0 -d 1 -p tcp -e 592 -c 1 -i 24 -a 1 -x {0.0 2.0 16 ------- null}
h -t 0.320096 -s 0 -d 1 -p tcp -e 592 -c 1 -i 24 -a 1 -x {0.0 2.0 -1 ------- null}
- -t 0.3205696 -s 0 -d 1 -p tcp -e 592 -c 1 -i 25 -a 1 -x {0.0 2.0 17 ------- null}
h -t 0.3205696 -s 0 -d 1 -p tcp -e 592 -c 1 -i 25 -a 1 -x {0.0 2.0 -1 ------- null}
r -t 0.3243584 -s 1 -d 0 -p ack -e 40 -c 1 -i 21 -a 1 -x {2.0 0.0 12 ------- null}
+ -t 0.3243584 -s 0 -d 1 -p tcp -e 592 -c 1 -i 26 -a 1 -x {0.0 2.0 18 ------- null}
- -t 0.3243584 -s 0 -d 1 -p tcp -e 592 -c 1 -i 26 -a 1 -x {0.0 2.0 18 ------- null}
h -t 0.3243584 -s 0 -d 1 -p tcp -e 592 -c 1 -i 26 -a 1 -x {0.0 2.0 -1 ------- null}
+ -t 0.3243584 -s 0 -d 1 -p tcp -e 592 -c 1 -i 27 -a 1 -x {0.0 2.0 19 ------- null}
+ -t 0.3243584 -s 0 -d 1 -p tcp -e 592 -c 1 -i 28 -a 1 -x {0.0 2.0 20 ------- null}
- -t 0.324832 -s 0 -d 1 -p tcp -e 592 -c 1 -i 27 -a 1 -x {0.0 2.0 19 ------- null}
h -t 0.324832 -s 0 -d 1 -p tcp -e 592 -c 1 -i 27 -a 1 -x {0.0 2.0 -1 ------- null}
- -t 0.3253056 -s 0 -d 1 -p tcp -e 592 -c 1 -i 28 -a 1 -x {0.0 2.0 20 ------- null}
h -t 0.3253056 -s 0 -d 1 -p tcp -e 592 -c 1 -i 28 -a 1 -x {0.0 2.0 -1 ------- null}
r -t 0.3290944 -s 1 -d 0 -p ack -e 40 -c 1 -i 22 -a 1 -x {2.0 0.0 14 ------- null}
+ -t 0.3290944 -s 0 -d 1 -p tcp -e 592 -c 1 -i 29 -a 1 -x {0.0 2.0 21 ------- null}
- -t 0.3290944 -s 0 -d 1 -p tcp -e 592 -c 1 -i 29 -a 1 -x {0.0 2.0 21 ------- null}
h -t 0.3290944 -s 0 -d 1 -p tcp -e 592 -c 1 -i 29 -a 1 -x {0.0 2.0 -1 ------- null}
+ -t 0.3290944 -s 0 -d 1 -p tcp -e 592 -c 1 -i 30 -a 1 -x {0.0 2.0 22 ------- null}
+ -t 0.3290944 -s 0 -d 1 -p tcp -e 592 -c 1 -i 31 -a 1 -x {0.0 2.0 23 ------- null}
- -t 0.329568 -s 0 -d 1 -p tcp -e 592 -c 1 -i 30 -a 1 -x {0.0 2.0 22 ------- null}
h -t 0.329568 -s 0 -d 1 -p tcp -e 592 -c 1 -i 30 -a 1 -x {0.0 2.0 -1 ------- null}
- -t 0.3300416 -s 0 -d 1 -p tcp -e 592 -c 1 -i 31 -a 1 -x {0.0 2.0 23 ------- null}
h -t 0.3300416 -s 0 -d 1 -p tcp -e 592 -c 1 -i 31 -a 1 -x {0.0 2.0 -1 ------- null}
r -t 0.330096 -s 0 -d 1 -p tcp -e 592 -c 1 -i 23 -a 1 -x {0.0 2.0 15 ------- null}
+ -t 0.330096 -s 1 -d 2 -p tcp -e 592 -c 1 -i 23 -a 1 -x {0.0 2.0 15 ------- null}
- -t 0.330096 -s 1 -d 2 -p tcp -e 592 -c 1 -i 23 -a 1 -x {0.0 2.0 15 ------- null}
h -t 0.330096 -s 1 -d 2 -p tcp -e 592 -c 1 -i 23 -a 1 -x {0.0 2.0 -1 ------- null}
r -t 0.3305696 -s 0 -d 1 -p tcp -e 592 -c 1 -i 24 -a 1 -x {0.0 2.0 16 ------- null}
+ -t 0.3305696 -s 1 -d 2 -p tcp -e 592 -c 1 -i 24 -a 1 -x {0.0 2.0 16 ------- null}
r -t 0.3310432 -s 0 -d 1 -p tcp -e 592 -c 1 -i 25 -a 1 -x {0.0 2.0 17 ------- null}
+ -t 0.3310432 -s 1 -d 2 -p tcp -e 592 -c 1 -i 25 -a 1 -x {0.0 2.0 17 ------- null}
- -t 0.332464 -s 1 -d 2 -p tcp -e 592 -c 1 -i 24 -a 1 -x {0.0 2.0 16 ------- null}
h -t 0.332464 -s 1 -d 2 -p tcp -e 592 -c 1 -i 24 -a 1 -x {0.0 2.0 -1 ------- null}
r -t 0.334832 -s 0 -d 1 -p tcp -e 592 -c 1 -i 26 -a 1 -x {0.0 2.0 18 ------- null}
+ -t 0.334832 -s 1 -d 2 -p tcp -e 592 -c 1 -i 26 -a 1 -x {0.0 2.0 18 ------- null}
- -t 0.334832 -s 1 -d 2 -p tcp -e 592 -c 1 -i 25 -a 1 -x {0.0 2.0 17 ------- null}
h -t 0.334832 -s 1 -d 2 -p tcp -e 592 -c 1 -i 25 -a 1 -x {0.0 2.0 -1 ------- null}
r -t 0.3353056 -s 0 -d 1 -p tcp -e 592 -c 1 -i 27 -a 1 -x {0.0 2.0 19 ------- null}
+ -t 0.3353056 -s 1 -d 2 -p tcp -e 592 -c 1 -i 27 -a 1 -x {0.0 2.0 19 ------- null}
r -t 0.3357792 -s 0 -d 1 -p tcp -e 592 -c 1 -i 28 -a 1 -x {0.0 2.0 20 ------- null}
+ -t 0.3357792 -s 1 -d 2 -p tcp -e 592 -c 1 -i 28 -a 1 -x {0.0 2.0 20 ------- null}
- -t 0.3372 -s 1 -d 2 -p tcp -e 592 -c 1 -i 26 -a 1 -x {0.0 2.0 18 ------- null}
h -t 0.3372 -s 1 -d 2 -p tcp -e 592 -c 1 -i 26 -a 1 -x {0.0 2.0 -1 ------- null}
r -t 0.339568 -s 0 -d 1 -p tcp -e 592 -c 1 -i 29 -a 1 -x {0.0 2.0 21 ------- null}
+ -t 0.339568 -s 1 -d 2 -p tcp -e 592 -c 1 -i 29 -a 1 -x {0.0 2.0 21 ------- null}
- -t 0.339568 -s 1 -d 2 -p tcp -e 592 -c 1 -i 27 -a 1 -x {0.0 2.0 19 ------- null}
h -t 0.339568 -s 1 -d 2 -p tcp -e 592 -c 1 -i 27 -a 1 -x {0.0 2.0 -1 ------- null}
r -t 0.3400416 -s 0 -d 1 -p tcp -e 592 -c 1 -i 30 -a 1 -x {0.0 2.0 22 ------- null}
+ -t 0.3400416 -s 1 -d 2 -p tcp -e 592 -c 1 -i 30 -a 1 -x {0.0 2.0 22 ------- null}
r -t 0.3405152 -s 0 -d 1 -p tcp -e 592 -c 1 -i 31 -a 1 -x {0.0 2.0 23 ------- null}
+ -t 0.3405152 -s 1 -d 2 -p tcp -e 592 -c 1 -i 31 -a 1 -x {0.0 2.0 23 ------- null}
- -t 0.341936 -s 1 -d 2 -p tcp -e 592 -c 1 -i 28 -a 1 -x {0.0 2.0 20 ------- null}
h -t 0.341936 -s 1 -d 2 -p tcp -e 592 -c 1 -i 28 -a 1 -x {0.0 2.0 -1 ------- null}
r -t 0.342464 -s 1 -d 2 -p tcp -e 592 -c 1 -i 23 -a 1 -x {0.0 2.0 15 ------- null}
- -t 0.344304 -s 1 -d 2 -p tcp -e 592 -c 1 -i 29 -a 1 -x {0.0 2.0 21 ------- null}
h -t 0.344304 -s 1 -d 2 -p tcp -e 592 -c 1 -i 29 -a 1 -x {0.0 2.0 -1 ------- null}
r -t 0.344832 -s 1 -d 2 -p tcp -e 592 -c 1 -i 24 -a 1 -x {0.0 2.0 16 ------- null}
+ -t 0.344832 -s 2 -d 1 -p ack -e 40 -c 1 -i 32 -a 1 -x {2.0 0.0 16 ------- null}
- -t 0.344832 -s 2 -d 1 -p ack -e 40 -c 1 -i 32 -a 1 -x {2.0 0.0 16 ------- null}
h -t 0.344832 -s 2 -d 1 -p ack -e 40 -c 1 -i 32 -a 1 -x {2.0 0.0 -1 ------- null}
- -t 0.346672 -s 1 -d 2 -p tcp -e 592 -c 1 -i 30 -a 1 -x {0.0 2.0 22 ------- null}
h -t 0.346672 -s 1 -d 2 -p tcp -e 592 -c 1 -i 30 -a 1 -x {0.0 2.0 -1 ------- null}
r -t 0.3472 -s 1 -d 2 -p tcp -e 592 -c 1 -i 25 -a 1 -x {0.0 2.0 17 ------- null}
- -t 0.34904 -s 1 -d 2 -p tcp -e 592 -c 1 -i 31 -a 1 -x {0.0 2.0 23 ------- null}
h -t 0.34904 -s 1 -d 2 -p tcp -e 592 -c 1 -i 31 -a 1 -x {0.0 2.0 -1 ------- null}
r -t 0.349568 -s 1 -d 2 -p tcp -e 592 -c 1 -i 26 -a 1 -x {0.0 2.0 18 ------- null}
+ -t 0.349568 -s 2 -d 1 -p ack -e 40 -c 1 -i 33 -a 1 -x {2.0 0.0 18 ------- null}
- -t 0.349568 -s 2 -d 1 -p ack -e 40 -c 1 -i 33 -a 1 -x {2.0 0.0 18 ------- null}
h -t 0.349568 -s 2 -d 1 -p ack -e 40 -c 1 -i 33 -a 1 -x {2.0 0.0 -1 ------- null}
r -t 0.351936 -s 1 -d 2 -p tcp -e 592 -c 1 -i 27 -a 1 -x {0.0 2.0 19 ------- null}
r -t 0.354304 -s 1 -d 2 -p tcp -e 592 -c 1 -i 28 -a 1 -x {0.0 2.0 20 ------- null}
+ -t 0.354304 -s 2 -d 1 -p ack -e 40 -c 1 -i 34 -a 1 -x {2.0 0.0 20 ------- null}
- -t 0.354304 -s 2 -d 1 -p ack -e 40 -c 1 -i 34 -a 1 -x {2.0 0.0 20 ------- null}
h -t 0.354304 -s 2 -d 1 -p ack -e 40 -c 1 -i 34 -a 1 -x {2.0 0.0 -1 ------- null}
r -t 0.354992 -s 2 -d 1 -p ack -e 40 -c 1 -i 32 -a 1 -x {2.0 0.0 16 ------- null}
+ -t 0.354992 -s 1 -d 0 -p ack -e 40 -c 1 -i 32 -a 1 -x {2.0 0.0 16 ------- null}
- -t 0.354992 -s 1 -d 0 -p ack -e 40 -c 1 -i 32 -a 1 -x {2.0 0.0 16 ------- null}
h -t 0.354992 -s 1 -d 0 -p ack -e 40 -c 1 -i 32 -a 1 -x {2.0 0.0 -1 ------- null}
r -t 0.356672 -s 1 -d 2 -p tcp -e 592 -c 1 -i 29 -a 1 -x {0.0 2.0 21 ------- null}
r -t 0.35904 -s 1 -d 2 -p tcp -e 592 -c 1 -i 30 -a 1 -x {0.0 2.0 22 ------- null}
+ -t 0.35904 -s 2 -d 1 -p ack -e 40 -c 1 -i 35 -a 1 -x {2.0 0.0 22 ------- null}
- -t 0.35904 -s 2 -d 1 -p ack -e 40 -c 1 -i 35 -a 1 -x {2.0 0.0 22 ------- null}
h -t 0.35904 -s 2 -d 1 -p ack -e 40 -c 1 -i 35 -a 1 -x {2.0 0.0 -1 ------- null}
r -t 0.359728 -s 2 -d 1 -p ack -e 40 -c 1 -i 33 -a 1 -x {2.0 0.0 18 ------- null}
+ -t 0.359728 -s 1 -d 0 -p ack -e 40 -c 1 -i 33 -a 1 -x {2.0 0.0 18 ------- null}
- -t 0.359728 -s 1 -d 0 -p ack -e 40 -c 1 -i 33 -a 1 -x {2.0 0.0 18 ------- null}
h -t 0.359728 -s 1 -d 0 -p ack -e 40 -c 1 -i 33 -a 1 -x {2.0 0.0 -1 ------- null}
r -t 0.361408 -s 1 -d 2 -p tcp -e 592 -c 1 -i 31 -a 1 -x {0.0 2.0 23 ------- null}
r -t 0.364464 -s 2 -d 1 -p ack -e 40 -c 1 -i 34 -a 1 -x {2.0 0.0 20 ------- null}
+ -t 0.364464 -s 1 -d 0 -p ack -e 40 -c 1 -i 34 -a 1 -x {2.0 0.0 20 ------- null}
- -t 0.364464 -s 1 -d 0 -p ack -e 40 -c 1 -i 34 -a 1 -x {2.0 0.0 20 ------- null}
h -t 0.364464 -s 1 -d 0 -p ack -e 40 -c 1 -i 34 -a 1 -x {2.0 0.0 -1 ------- null}
r -t 0.365024 -s 1 -d 0 -p ack -e 40 -c 1 -i 32 -a 1 -x {2.0 0.0 16 ------- null}
+ -t 0.365024 -s 0 -d 1 -p tcp -e 592 -c 1 -i 36 -a 1 -x {0.0 2.0 24 ------- null}
- -t 0.365024 -s 0 -d 1 -p tcp -e 592 -c 1 -i 36 -a 1 -x {0.0 2.0 24 ------- null}
h -t 0.365024 -s 0 -d 1 -p tcp -e 592 -c 1 -i 36 -a 1 -x {0.0 2.0 -1 ------- null}
+ -t 0.365024 -s 0 -d 1 -p tcp -e 592 -c 1 -i 37 -a 1 -x {0.0 2.0 25 ------- null}
+ -t 0.365024 -s 0 -d 1 -p tcp -e 592 -c 1 -i 38 -a 1 -x {0.0 2.0 26 ------- null}
- -t 0.3654976 -s 0 -d 1 -p tcp -e 592 -c 1 -i 37 -a 1 -x {0.0 2.0 25 ------- null}
h -t 0.3654976 -s 0 -d 1 -p tcp -e 592 -c 1 -i 37 -a 1 -x {0.0 2.0 -1 ------- null}
- -t 0.3659712 -s 0 -d 1 -p tcp -e 592 -c 1 -i 38 -a 1 -x {0.0 2.0 26 ------- null}
h -t 0.3659712 -s 0 -d 1 -p tcp -e 592 -c 1 -i 38 -a 1 -x {0.0 2.0 -1 ------- null}
r -t 0.3692 -s 2 -d 1 -p ack -e 40 -c 1 -i 35 -a 1 -x {2.0 0.0 22 ------- null}
+ -t 0.3692 -s 1 -d 0 -p ack -e 40 -c 1 -i 35 -a 1 -x {2.0 0.0 22 ------- null}
- -t 0.3692 -s 1 -d 0 -p ack -e 40 -c 1 -i 35 -a 1 -x {2.0 0.0 22 ------- null}
h -t 0.3692 -s 1 -d 0 -p ack -e 40 -c 1 -i 35 -a 1 -x {2.0 0.0 -1 ------- null}
r -t 0.36976 -s 1 -d 0 -p ack -e 40 -c 1 -i 33 -a 1 -x {2.0 0.0 18 ------- null}
+ -t 0.36976 -s 0 -d 1 -p tcp -e 592 -c 1 -i 39 -a 1 -x {0.0 2.0 27 ------- null}
- -t 0.36976 -s 0 -d 1 -p tcp -e 592 -c 1 -i 39 -a 1 -x {0.0 2.0 27 ------- null}
h -t 0.36976 -s 0 -d 1 -p tcp -e 592 -c 1 -i 39 -a 1 -x {0.0 2.0 -1 ------- null}
+ -t 0.36976 -s 0 -d 1 -p tcp -e 592 -c 1 -i 40 -a 1 -x {0.0 2.0 28 ------- null}
+ -t 0.36976 -s 0 -d 1 -p tcp -e 592 -c 1 -i 41 -a 1 -x {0.0 2.0 29 ------- null}
- -t 0.3702336 -s 0 -d 1 -p tcp -e 592 -c 1 -i 40 -a 1 -x {0.0 2.0 28 ------- null}
h -t 0.3702336 -s 0 -d 1 -p tcp -e 592 -c 1 -i 40 -a 1 -x {0.0 2.0 -1 ------- null}
- -t 0.3707072 -s 0 -d 1 -p tcp -e 592 -c 1 -i 41 -a 1 -x {0.0 2.0 29 ------- null}
h -t 0.3707072 -s 0 -d 1 -p tcp -e 592 -c 1 -i 41 -a 1 -x {0.0 2.0 -1 ------- null}
r -t 0.374496 -s 1 -d 0 -p ack -e 40 -c 1 -i 34 -a 1 -x {2.0 0.0 20 ------- null}
+ -t 0.374496 -s 0 -d 1 -p tcp -e 592 -c 1 -i 42 -a 1 -x {0.0 2.0 30 ------- null}
- -t 0.374496 -s 0 -d 1 -p tcp -e 592 -c 1 -i 42 -a 1 -x {0.0 2.0 30 ------- null}
h -t 0.374496 -s 0 -d 1 -p tcp -e 592 -c 1 -i 42 -a 1 -x {0.0 2.0 -1 ------- null}
+ -t 0.374496 -s 0 -d 1 -p tcp -e 592 -c 1 -i 43 -a 1 -x {0.0 2.0 31 ------- null}
+ -t 0.374496 -s 0 -d 1 -p tcp -e 592 -c 1 -i 44 -a 1 -x {0.0 2.0 32 ------- null}
- -t 0.3749696 -s 0 -d 1 -p tcp -e 592 -c 1 -i 43 -a 1 -x {0.0 2.0 31 ------- null}
h -t 0.3749696 -s 0 -d 1 -p tcp -e 592 -c 1 -i 43 -a 1 -x {0.0 2.0 -1 ------- null}
- -t 0.3754432 -s 0 -d 1 -p tcp -e 592 -c 1 -i 44 -a 1 -x {0.0 2.0 32 ------- null}
h -t 0.3754432 -s 0 -d 1 -p tcp -e 592 -c 1 -i 44 -a 1 -x {0.0 2.0 -1 ------- null}
r -t 0.3754976 -s 0 -d 1 -p tcp -e 592 -c 1 -i 36 -a 1 -x {0.0 2.0 24 ------- null}
+ -t 0.3754976 -s 1 -d 2 -p tcp -e 592 -c 1 -i 36 -a 1 -x {0.0 2.0 24 ------- null}
- -t 0.3754976 -s 1 -d 2 -p tcp -e 592 -c 1 -i 36 -a 1 -x {0.0 2.0 24 ------- null}
h -t 0.3754976 -s 1 -d 2 -p tcp -e 592 -c 1 -i 36 -a 1 -x {0.0 2.0 -1 ------- null}
r -t 0.3759712 -s 0 -d 1 -p tcp -e 592 -c 1 -i 37 -a 1 -x {0.0 2.0 25 ------- null}
+ -t 0.3759712 -s 1 -d 2 -p tcp -e 592 -c 1 -i 37 -a 1 -x {0.0 2.0 25 ------- null}
r -t 0.3764448 -s 0 -d 1 -p tcp -e 592 -c 1 -i 38 -a 1 -x {0.0 2.0 26 ------- null}
+ -t 0.3764448 -s 1 -d 2 -p tcp -e 592 -c 1 -i 38 -a 1 -x {0.0 2.0 26 ------- null}
- -t 0.3778656 -s 1 -d 2 -p tcp -e 592 -c 1 -i 37 -a 1 -x {0.0 2.0 25 ------- null}
h -t 0.3778656 -s 1 -d 2 -p tcp -e 592 -c 1 -i 37 -a 1 -x {0.0 2.0 -1 ------- null}
r -t 0.379232 -s 1 -d 0 -p ack -e 40 -c 1 -i 35 -a 1 -x {2.0 0.0 22 ------- null}
+ -t 0.379232 -s 0 -d 1 -p tcp -e 592 -c 1 -i 45 -a 1 -x {0.0 2.0 33 ------- null}
- -t 0.379232 -s 0 -d 1 -p tcp -e 592 -c 1 -i 45 -a 1 -x {0.0 2.0 33 ------- null}
h -t 0.379232 -s 0 -d 1 -p tcp -e 592 -c 1 -i 45 -a 1 -x {0.0 2.0 -1 ------- null}
+ -t 0.379232 -s 0 -d 1 -p tcp -e 592 -c 1 -i 46 -a 1 -x {0.0 2.0 34 ------- null}
+ -t 0.379232 -s 0 -d 1 -p tcp -e 592 -c 1 -i 47 -a 1 -x {0.0 2.0 35 ------- null}
- -t 0.3797056 -s 0 -d 1 -p tcp -e 592 -c 1 -i 46 -a 1 -x {0.0 2.0 34 ------- null}
h -t 0.3797056 -s 0 -d 1 -p tcp -e 592 -c 1 -i 46 -a 1 -x {0.0 2.0 -1 ------- null}
- -t 0.3801792 -s 0 -d 1 -p tcp -e 592 -c 1 -i 47 -a 1 -x {0.0 2.0 35 ------- null}
h -t 0.3801792 -s 0 -d 1 -p tcp -e 592 -c 1 -i 47 -a 1 -x {0.0 2.0 -1 ------- null}
r -t 0.3802336 -s 0 -d 1 -p tcp -e 592 -c 1 -i 39 -a 1 -x {0.0 2.0 27 ------- null}
+ -t 0.3802336 -s 1 -d 2 -p tcp -e 592 -c 1 -i 39 -a 1 -x {0.0 2.0 27 ------- null}
- -t 0.3802336 -s 1 -d 2 -p tcp -e 592 -c 1 -i 38 -a 1 -x {0.0 2.0 26 ------- null}
h -t 0.3802336 -s 1 -d 2 -p tcp -e 592 -c 1 -i 38 -a 1 -x {0.0 2.0 -1 ------- null}
r -t 0.3807072 -s 0 -d 1 -p tcp -e 592 -c 1 -i 40 -a 1 -x {0.0 2.0 28 ------- null}
+ -t 0.3807072 -s 1 -d 2 -p tcp -e 592 -c 1 -i 40 -a 1 -x {0.0 2.0 28 ------- null}
r -t 0.3811808 -s 0 -d 1 -p tcp -e 592 -c 1 -i 41 -a 1 -x {0.0 2.0 29 ------- null}
+ -t 0.3811808 -s 1 -d 2 -p tcp -e 592 -c 1 -i 41 -a 1 -x {0.0 2.0 29 ------- null}
- -t 0.3826016 -s 1 -d 2 -p tcp -e 592 -c 1 -i 39 -a 1 -x {0.0 2.0 27 ------- null}
h -t 0.3826016 -s 1 -d 2 -p tcp -e 592 -c 1 -i 39 -a 1 -x {0.0 2.0 -1 ------- null}
r -t 0.3849696 -s 0 -d 1 -p tcp -e 592 -c 1 -i 42 -a 1 -x {0.0 2.0 30 ------- null}
+ -t 0.3849696 -s 1 -d 2 -p tcp -e 592 -c 1 -i 42 -a 1 -x {0.0 2.0 30 ------- null}
- -t 0.3849696 -s 1 -d 2 -p tcp -e 592 -c 1 -i 40 -a 1 -x {0.0 2.0 28 ------- null}
h -t 0.3849696 -s 1 -d 2 -p tcp -e 592 -c 1 -i 40 -a 1 -x {0.0 2.0 -1 ------- null}
r -t 0.3854432 -s 0 -d 1 -p tcp -e 592 -c 1 -i 43 -a 1 -x {0.0 2.0 31 ------- null}
+ -t 0.3854432 -s 1 -d 2 -p tcp -e 592 -c 1 -i 43 -a 1 -x {0.0 2.0 31 ------- null}
r -t 0.3859168 -s 0 -d 1 -p tcp -e 592 -c 1 -i 44 -a 1 -x {0.0 2.0 32 ------- null}
+ -t 0.3859168 -s 1 -d 2 -p tcp -e 592 -c 1 -i 44 -a 1 -x {0.0 2.0 32 ------- null}
- -t 0.3873376 -s 1 -d 2 -p tcp -e 592 -c 1 -i 41 -a 1 -x {0.0 2.0 29 ------- null}
h -t 0.3873376 -s 1 -d 2 -p tcp -e 592 -c 1 -i 41 -a 1 -x {0.0 2.0 -1 ------- null}
r -t 0.3878656 -s 1 -d 2 -p tcp -e 592 -c 1 -i 36 -a 1 -x {0.0 2.0 24 ------- null}
+ -t 0.3878656 -s 2 -d 1 -p ack -e 40 -c 1 -i 48 -a 1 -x {2.0 0.0 24 ------- null}
- -t 0.3878656 -s 2 -d 1 -p ack -e 40 -c 1 -i 48 -a 1 -x {2.0 0.0 24 ------- null}